                         Program Version 5.0.3 -  RELEASE  -
|  1> !RHF def2-SVP TightSCF PAL16
|  2> *xyz 0 1
|  3> N -2.1048420930998057 -1.3122473991045311 1.2217212190402955
|  4> C -2.3847645714779975 -0.4450714083746091 0.28671359557363846
|  5> N -1.3900935921449575 0.13561567453120515 -0.4933818522251262
|  6> O -0.21983821165649026 -0.6453999960952852 -0.593211248080012
|  7> C 0.6036123415358013 -0.3963391618614332 0.5580440010844274
|  8> C 1.9338391780320836 0.02331911946896059 0.060403270681207225
|  9> N 3.0768313295169265 -0.6278154476587985 0.02572286996674037
| 10> C 3.918293604283408 0.30184760060533455 -0.5241671442674254
| 11> C 5.424585519970885 0.024503341645289143 -0.7853916231149888
| 12> C 6.127768893347877 -1.0778840906189842 -0.034180572774921814
| 13> C 6.4224326306764175 0.3570184324579223 0.29574126422879604
| 14> N 3.3521531240016778 1.47806492838994 -0.8185231152570244
| 15> O 2.023579706504139 1.2962147118059892 -0.4295840047496564
| 16> C -3.8356818885671813 -0.05907170339162644 0.08345291948356695
| 17> C -4.222667785614944 0.9846811759239608 -0.7493440022618214
| 18> C -5.583224941398195 1.262244877799064 -0.8619149939272449
| 19> C -6.500417895848933 0.5020575150934813 -0.14202014725351933
| 20> C -6.021915559037127 -0.5113407338198918 0.6730803226378848
| 21> N -4.712321573425842 -0.8094450880735151 0.8068975136399202
| 22> H -3.0065594028309373 -1.5996664069108568 1.6427833555905973
| 23> H -1.6866370857748616 0.43514791442450046 -1.4177451057531714
| 24> H 0.1931657057099761 0.37749583143700866 1.218684829803
| 25> H 0.693153232270712 -1.3291093955168956 1.123079658706116
| 26> H 5.728421992317859 0.19611316689270752 -1.8116274178139158
| 27> H 5.557614404274737 -1.6599117553899934 0.6822099009960928
| 28> H 6.883675078508559 -1.6474199141390378 -0.56261681606482
| 29> H 6.053469417142831 0.7454415476816797 1.2386624932886223
| 30> H 7.377509910970196 0.7673355963070317 -0.009122442781014234
| 31> H -3.5079886699535727 1.5916875536227657 -1.290275928450828
| 32> H -5.927094256982676 2.070829269403551 -1.5029690224839525
| 33> H -7.565326362630865 0.698535951831523 -0.2104982986895821
| 34> H -6.700732178618706 -1.1274317083651773 1.2574917984994844
| 35> *
| 36>
| 37>                          ****END OF INPUT****

CARTESIAN COORDINATES (ANGSTROEM)
---------------------------------
  N     -2.104842   -1.312247    1.221721
  C     -2.384765   -0.445071    0.286714
  N     -1.390094    0.135616   -0.493382
  O     -0.219838   -0.645400   -0.593211
  C      0.603612   -0.396339    0.558044
  C      1.933839    0.023319    0.060403
  N      3.076831   -0.627815    0.025723
  C      3.918294    0.301848   -0.524167
  C      5.424586    0.024503   -0.785392
  C      6.127769   -1.077884   -0.034181
  C      6.422433    0.357018    0.295741
  N      3.352153    1.478065   -0.818523
  O      2.023580    1.296215   -0.429584
  C     -3.835682   -0.059072    0.083453
  C     -4.222668    0.984681   -0.749344
  C     -5.583225    1.262245   -0.861915
  C     -6.500418    0.502058   -0.142020
  C     -6.021916   -0.511341    0.673080
  N     -4.712322   -0.809445    0.806898
  H     -3.006559   -1.599666    1.642783
  H     -1.686637    0.435148   -1.417745
  H      0.193166    0.377496    1.218685
  H      0.693153   -1.329109    1.123080
  H      5.728422    0.196113   -1.811627
  H      5.557614   -1.659912    0.682210
  H      6.883675   -1.647420   -0.562617
  H      6.053469    0.745442    1.238662
  H      7.377510    0.767336   -0.009122
  H     -3.507989    1.591688   -1.290276
  H     -5.927094    2.070829   -1.502969
  H     -7.565326    0.698536   -0.210498
  H     -6.700732   -1.127432    1.257492

 Total Charge           Charge          ....    0
 Multiplicity           Mult            ....    1
 Number of Electrons    NEL             ....  136
 Basis Dimension        Dim             ....  331

ORBITAL ENERGIES
----------------

  NO   OCC          E(Eh)            E(eV)
   0   2.0000     -20.646908      -561.8309
   1   2.0000     -20.608819      -560.7945
   2   2.0000     -15.638298      -425.5397
   3   2.0000     -15.617501      -424.9738
   4   2.0000     -15.595874      -424.3853
   5   2.0000     -15.576499      -423.8581
   6   2.0000     -15.536788      -422.7775
   7   2.0000     -11.360722      -309.1410
   8   2.0000     -11.327772      -308.2444
   9   2.0000     -11.319253      -308.0125
  10   2.0000     -11.316849      -307.9471
  11   2.0000     -11.306736      -307.6719
  12   2.0000     -11.306187      -307.6570
  13   2.0000     -11.289043      -307.1905
  14   2.0000     -11.275074      -306.8104
  15   2.0000     -11.269253      -306.6520
  16   2.0000     -11.256712      -306.3107
  17   2.0000     -11.239393      -305.8394
  18   2.0000     -11.236842      -305.7700
  19   2.0000      -1.495190       -40.6862
  20   2.0000      -1.428485       -38.8711
  21   2.0000      -1.278288       -34.7840
  22   2.0000      -1.241442       -33.7814
  23   2.0000      -1.209740       -32.9187
  24   2.0000      -1.155245       -31.4358
  25   2.0000      -1.130750       -30.7693
  26   2.0000      -1.114057       -30.3150
  27   2.0000      -1.097660       -29.8688
  28   2.0000      -1.053123       -28.6569
  29   2.0000      -0.969270       -26.3752
  30   2.0000      -0.891325       -24.2542
  31   2.0000      -0.878775       -23.9127
  32   2.0000      -0.877515       -23.8784
  33   2.0000      -0.828859       -22.5544
  34   2.0000      -0.815557       -22.1924
  35   2.0000      -0.797879       -21.7114
  36   2.0000      -0.781909       -21.2768
  37   2.0000      -0.767567       -20.8866
  38   2.0000      -0.717748       -19.5309
  39   2.0000      -0.702583       -19.1182
  40   2.0000      -0.690629       -18.7930
  41   2.0000      -0.683292       -18.5933
  42   2.0000      -0.680436       -18.5156
  43   2.0000      -0.664922       -18.0934
  44   2.0000      -0.654032       -17.7971
  45   2.0000      -0.643158       -17.5012
  46   2.0000      -0.631535       -17.1849
  47   2.0000      -0.620439       -16.8830
  48   2.0000      -0.604944       -16.4614
  49   2.0000      -0.600413       -16.3381
  50   2.0000      -0.580288       -15.7904
  51   2.0000      -0.560657       -15.2563
  52   2.0000      -0.549918       -14.9640
  53   2.0000      -0.529767       -14.4157
  54   2.0000      -0.524879       -14.2827
  55   2.0000      -0.521205       -14.1827
  56   2.0000      -0.505852       -13.7649
  57   2.0000      -0.478355       -13.0167
  58   2.0000      -0.468812       -12.7570
  59   2.0000      -0.464754       -12.6466
  60   2.0000      -0.453333       -12.3358
  61   2.0000      -0.436255       -11.8711
  62   2.0000      -0.433144       -11.7864
  63   2.0000      -0.429483       -11.6868
  64   2.0000      -0.410904       -11.1813
  65   2.0000      -0.388693       -10.5769
  66   2.0000      -0.378509       -10.2997
  67   2.0000      -0.354168        -9.6374
  68   0.0000       0.067089         1.8256
  69   0.0000       0.092334         2.5125
  70   0.0000       0.112010         3.0479
  71   0.0000       0.162783         4.4295
  72   0.0000       0.184374         5.0171

MULLIKEN ATOMIC CHARGES
-----------------------
   0 N :   -0.288850
   1 C :    0.254950
   2 N :   -0.143319
   3 O :   -0.456744
   4 C :    0.424611
   5 C :    0.296598
   6 N :   -0.369926
   7 C :    0.187048
   8 C :   -0.157613
   9 C :   -0.031171
  10 C :   -0.049758
  11 N :   -0.080194
  12 O :   -0.393373
  13 C :    0.073252
  14 C :   -0.067359
  15 C :    0.048049
  16 C :   -0.114743
  17 C :    0.180420
  18 N :   -0.390471
  19 H :    0.156094
  20 H :    0.169091
  21 H :    0.077240
  22 H :    0.077027
  23 H :    0.082266
  24 H :    0.081319
  25 H :    0.059803
  26 H :    0.067673
  27 H :    0.064347
  28 H :    0.054317
  29 H :    0.062583
  30 H :    0.062044
  31 H :    0.064791
Sum of atomic charges:    0.0000000

LOEWDIN ATOMIC CHARGES
----------------------
   0 N :   -0.198316
   1 C :    0.070940
   2 N :    0.026218
   3 O :   -0.172364
   4 C :    0.131532
   5 C :    0.154683
   6 N :   -0.195140
   7 C :    0.058599
   8 C :   -0.037621
   9 C :   -0.016063
  10 C :   -0.014504
  11 N :   -0.093250
  12 O :   -0.093042
  13 C :    0.027607
  14 C :   -0.058093
  15 C :    0.038689
  16 C :   -0.057617
  17 C :    0.076126
  18 N :   -0.131191
  19 H :    0.061269
  20 H :    0.071056
  21 H :    0.039422
  22 H :    0.039422
  23 H :    0.034770
  24 H :    0.029832
  25 H :    0.023537
  26 H :    0.025348
  27 H :    0.023467
  28 H :    0.032240
  29 H :    0.037477
  30 H :    0.036109
  31 H :    0.028858

  Mayer bond orders larger than 0.100000
B(  0-N ,  1-C ) :   2.0234 B(  0-N , 19-H ) :   0.9176 B(  1-C ,  2-N ) :   1.0513
B(  1-C , 13-C ) :   0.9624 B(  2-N ,  3-O ) :   0.9422 B(  2-N , 20-H ) :   0.9313
B(  3-O ,  4-C ) :   0.8476 B(  4-C ,  5-C ) :   0.9887 B(  4-C , 21-H ) :   0.9684
B(  4-C , 22-H ) :   0.9763 B(  5-C ,  6-N ) :   1.6858 B(  5-C , 12-O ) :   1.0971
B(  6-N ,  7-C ) :   1.2477 B(  7-C ,  8-C ) :   0.9600 B(  7-C , 11-N ) :   1.7202
B(  8-C ,  9-C ) :   0.9572 B(  8-C , 10-C ) :   0.9584 B(  8-C , 23-H ) :   0.9610
B(  9-C , 10-C ) :   0.9745 B(  9-C , 24-H ) :   0.9711 B(  9-C , 25-H ) :   0.9721
B( 10-C , 26-H ) :   0.9740 B( 10-C , 27-H ) :   0.9762 B( 11-N , 12-O ) :   0.8909
B( 13-C , 14-C ) :   1.4006 B( 13-C , 18-N ) :   1.4268 B( 14-C , 15-C ) :   1.4319
B( 14-C , 28-H ) :   0.9829 B( 15-C , 16-C ) :   1.4434 B( 15-C , 29-H ) :   0.9906
B( 16-C , 17-C ) :   1.3867 B( 16-C , 30-H ) :   0.9894 B( 17-C , 18-N ) :   1.4746
B( 17-C , 31-H ) :   0.9981

FINAL SINGLE POINT ENERGY      -883.098796825629

DIPOLE MOMENT
-------------
                                X             Y             Z
Electronic contribution:     -7.63304       1.36813      -1.61650
Nuclear contribution   :      5.81257      -0.71347       1.23660
                        -----------------------------------------
Total Dipole Moment    :     -1.82046       0.65466      -0.37990
                        -----------------------------------------
Magnitude (a.u.)       :      1.97154
Magnitude (Debye)      :      5.01126

Rotational constants in cm-1:     0.059448     0.003771     0.003606
Rotational constants in MHz :  1782.196244   113.040846   108.094081

                             ****ORCA TERMINATED NORMALLY****
TOTAL RUN TIME: 0 days 0 hours 0 minutes 12 seconds 286 msec
