                         Program Version 5.0.3 -  RELEASE  -
|  1> !RHF def2-SVP TightSCF PAL16
|  2> *xyz 0 1
|  3> C -2.4446380582202956 2.1257441885706245 2.736748633639922
|  4> O -2.802230340774584 1.2986493751019295 1.6394467085396727
|  5> C -1.8296051703696878 0.5044577265716612 1.0794182651014106
|  6> C -0.5160932000197338 0.43639285265116123 1.5657656608718227
|  7> C 0.4305072823903103 -0.4140271479455846 0.9775793276916659
|  8> C 1.8447988696838293 -0.4828071391357115 1.5104026884863018
|  9> C 2.8629130990411635 0.137853993672998 0.5996046438629329
| 10> C 2.9685538378015632 1.5098213916460286 0.48604086480567826
| 11> N 3.8391774046165956 2.1345910056856368 -0.3261979092568471
| 12> C 4.6252815418970945 1.3470393083725312 -1.0586571550681358
| 13> N 5.508358050171255 1.9599483699731646 -1.9243004434100504
| 14> N 4.592978115278893 0.012523603604320905 -1.0496959312019436
| 15> C 3.72477021518668 -0.5738412374829363 -0.21331334081704098
| 16> N 3.7325816446801348 -1.969753791397597 -0.24342830088837186
| 17> C 0.052086622663839156 -1.2057127869042463 -0.11401381669785231
| 18> C -1.247851355470688 -1.1454145237798454 -0.6267362601788112
| 19> O -1.6792279294611951 -1.9084888742104655 -1.688643480313065
| 20> C -0.681228822814603 -2.467497164153059 -2.530312866053501
| 21> C -2.212709775390295 -0.2874968968067914 -0.03535189548031605
| 22> N -3.5224514697914144 -0.2762492857231495 -0.5950977487554612
| 23> C -4.476686338143833 -0.9887570217843201 0.24905357799928937
| 24> C -3.9597928386572163 1.0363561665862078 -1.0586813029507365
| 25> H -1.6701324323305908 2.846180119740902 2.4538864739341237
| 26> H -2.1352543063457707 1.5259408118447444 3.5988620167917755
| 27> H -3.3330791848126173 2.6932092364355826 3.030231728532868
| 28> H -0.20691922640188554 1.035381095942313 2.4159194894537004
| 29> H 1.9026009640875894 0.016479700396152368 2.487289442343167
| 30> H 2.084890466464165 -1.5305856948314869 1.7284203142127332
| 31> H 2.3299117720783986 2.175604207968851 1.060263332663309
| 32> H 5.164127036419303 2.8829752918122686 -2.1496923552506644
| 33> H 5.704645795026342 1.3401868850439234 -2.6974112173431197
| 34> H 4.465721229544301 -2.2397006296113444 -0.8971565526098212
| 35> H 3.9095939517628993 -2.362126168888144 0.6744298871557161
| 36> H 0.7909265735389486 -1.87292948843288 -0.5485148264768537
| 37> H -1.179865843868118 -2.871079390666082 -3.416904473546272
| 38> H -0.1711880142089318 -3.297647436286149 -2.0314696475194536
| 39> H 0.03333228638407866 -1.7090257574530352 -2.8678402785102164
| 40> H -4.684565932819564 -0.45697149591704456 1.1838698268329118
| 41> H -4.117967494013884 -1.9965197623627038 0.4888659339513616
| 42> H -5.425707694415226 -1.105715280974798 -0.28595570658056346
| 43> H -3.1648179161456613 1.5520220055803848 -1.6096410998997221
| 44> H -4.307023604475514 1.680426237562247 -0.24476021025044714
| 45> H -4.798719809766675 0.910563399984491 -1.7523219978112734
| 46> *
| 47>
| 48>                          ****END OF INPUT****

CARTESIAN COORDINATES (ANGSTROEM)
---------------------------------
  C     -2.444638    2.125744    2.736749
  O     -2.802230    1.298649    1.639447
  C     -1.829605    0.504458    1.079418
  C     -0.516093    0.436393    1.565766
  C      0.430507   -0.414027    0.977579
  C      1.844799   -0.482807    1.510403
  C      2.862913    0.137854    0.599605
  C      2.968554    1.509821    0.486041
  N      3.839177    2.134591   -0.326198
  C      4.625282    1.347039   -1.058657
  N      5.508358    1.959948   -1.924300
  N      4.592978    0.012524   -1.049696
  C      3.724770   -0.573841   -0.213313
  N      3.732582   -1.969754   -0.243428
  C      0.052087   -1.205713   -0.114014
  C     -1.247851   -1.145415   -0.626736
  O     -1.679228   -1.908489   -1.688643
  C     -0.681229   -2.467497   -2.530313
  C     -2.212710   -0.287497   -0.035352
  N     -3.522451   -0.276249   -0.595098
  C     -4.476686   -0.988757    0.249054
  C     -3.959793    1.036356   -1.058681
  H     -1.670132    2.846180    2.453886
  H     -2.135254    1.525941    3.598862
  H     -3.333079    2.693209    3.030232
  H     -0.206919    1.035381    2.415919
  H      1.902601    0.016480    2.487289
  H      2.084890   -1.530586    1.728420
  H      2.329912    2.175604    1.060263
  H      5.164127    2.882975   -2.149692
  H      5.704646    1.340187   -2.697411
  H      4.465721   -2.239701   -0.897157
  H      3.909594   -2.362126    0.674430
  H      0.790927   -1.872929   -0.548515
  H     -1.179866   -2.871079   -3.416904
  H     -0.171188   -3.297647   -2.031470
  H      0.033332   -1.709026   -2.867840
  H     -4.684566   -0.456971    1.183870
  H     -4.117967   -1.996520    0.488866
  H     -5.425708   -1.105715   -0.285956
  H     -3.164818    1.552022   -1.609641
  H     -4.307024    1.680426   -0.244760
  H     -4.798720    0.910563   -1.752322

 Total Charge           Charge          ....    0
 Multiplicity           Mult            ....    1
 Number of Electrons    NEL             ....  162
 Basis Dimension        Dim             ....  413

ORBITAL ENERGIES
----------------

  NO   OCC          E(Eh)            E(eV)
   0   2.0000     -20.579615      -559.9998
   1   2.0000     -20.564000      -559.5749
   2   2.0000     -15.577524      -423.8860
   3   2.0000     -15.566433      -423.5842
   4   2.0000     -15.549452      -423.1221
   5   2.0000     -15.545561      -423.0162
   6   2.0000     -15.528023      -422.5390
   7   2.0000     -11.344320      -308.6946
   8   2.0000     -11.330034      -308.3059
   9   2.0000     -11.304326      -307.6063
  10   2.0000     -11.298100      -307.4369
  11   2.0000     -11.295362      -307.3624
  12   2.0000     -11.294922      -307.3505
  13   2.0000     -11.281981      -306.9983
  14   2.0000     -11.250381      -306.1384
  15   2.0000     -11.249719      -306.1204
  16   2.0000     -11.248360      -306.0834
  17   2.0000     -11.232406      -305.6493
  18   2.0000     -11.231664      -305.6291
  19   2.0000     -11.231179      -305.6159
  20   2.0000     -11.227215      -305.5081
  21   2.0000     -11.220046      -305.3130
  22   2.0000      -1.390647       -37.8414
  23   2.0000      -1.374970       -37.4148
  24   2.0000      -1.320994       -35.9461
  25   2.0000      -1.237532       -33.6750
  26   2.0000      -1.203983       -32.7620
  27   2.0000      -1.182482       -32.1770
  28   2.0000      -1.141358       -31.0579
  29   2.0000      -1.129902       -30.7462
  30   2.0000      -1.071241       -29.1500
  31   2.0000      -1.008193       -27.4343
  32   2.0000      -1.000772       -27.2324
  33   2.0000      -0.944146       -25.6915
  34   2.0000      -0.937108       -25.5000
  35   2.0000      -0.925294       -25.1785
  36   2.0000      -0.911386       -24.8001
  37   2.0000      -0.879712       -23.9382
  38   2.0000      -0.850971       -23.1561
  39   2.0000      -0.823163       -22.3994
  40   2.0000      -0.792226       -21.5576
  41   2.0000      -0.779889       -21.2219
  42   2.0000      -0.753588       -20.5062
  43   2.0000      -0.721809       -19.6414
  44   2.0000      -0.703063       -19.1313
  45   2.0000      -0.698015       -18.9939
  46   2.0000      -0.680841       -18.5266
  47   2.0000      -0.661915       -18.0116
  48   2.0000      -0.658998       -17.9323
  49   2.0000      -0.658783       -17.9264
  50   2.0000      -0.643427       -17.5085
  51   2.0000      -0.638076       -17.3629
  52   2.0000      -0.633910       -17.2496
  53   2.0000      -0.614301       -16.7160
  54   2.0000      -0.611273       -16.6336
  55   2.0000      -0.606240       -16.4966
  56   2.0000      -0.596563       -16.2333
  57   2.0000      -0.592450       -16.1214
  58   2.0000      -0.590990       -16.0817
  59   2.0000      -0.577136       -15.7047
  60   2.0000      -0.571877       -15.5616
  61   2.0000      -0.554784       -15.0964
  62   2.0000      -0.544782       -14.8243
  63   2.0000      -0.534566       -14.5463
  64   2.0000      -0.519222       -14.1288
  65   2.0000      -0.512831       -13.9548
  66   2.0000      -0.510880       -13.9017
  67   2.0000      -0.503006       -13.6875
  68   2.0000      -0.500113       -13.6088
  69   2.0000      -0.498788       -13.5727
  70   2.0000      -0.488209       -13.2848
  71   2.0000      -0.482311       -13.1244
  72   2.0000      -0.469049       -12.7635
  73   2.0000      -0.446456       -12.1487
  74   2.0000      -0.437902       -11.9159
  75   2.0000      -0.406350       -11.0573
  76   2.0000      -0.390129       -10.6160
  77   2.0000      -0.341233        -9.2854
  78   2.0000      -0.328823        -8.9477
  79   2.0000      -0.310289        -8.4434
  80   2.0000      -0.301259        -8.1977
  81   0.0000       0.113654         3.0927
  82   0.0000       0.129744         3.5305
  83   0.0000       0.150951         4.1076
  84   0.0000       0.157719         4.2918
  85   0.0000       0.169157         4.6030

MULLIKEN ATOMIC CHARGES
-----------------------
   0 C :    0.232459
   1 O :   -0.568962
   2 C :    0.399246
   3 C :   -0.179013
   4 C :   -0.078306
   5 C :    0.236201
   6 C :   -0.376864
   7 C :    0.263526
   8 N :   -0.428289
   9 C :    0.374905
  10 N :   -0.248586
  11 N :   -0.435530
  12 C :    0.310270
  13 N :   -0.274560
  14 C :   -0.168110
  15 C :    0.385355
  16 O :   -0.543831
  17 C :    0.229679
  18 C :   -0.030563
  19 N :   -0.578845
  20 C :    0.181140
  21 C :    0.179333
  22 H :    0.032851
  23 H :    0.033661
  24 H :    0.050377
  25 H :    0.010127
  26 H :    0.033736
  27 H :    0.037265
  28 H :    0.044154
  29 H :    0.153547
  30 H :    0.149519
  31 H :    0.145978
  32 H :    0.149867
  33 H :    0.033617
  34 H :    0.046438
  35 H :    0.029341
  36 H :    0.032428
  37 H :    0.016450
  38 H :    0.032570
  39 H :    0.019309
  40 H :    0.029881
  41 H :    0.020280
  42 H :    0.017945
Sum of atomic charges:    0.0000000

LOEWDIN ATOMIC CHARGES
----------------------
   0 C :    0.133908
   1 O :   -0.193076
   2 C :    0.109788
   3 C :   -0.116858
   4 C :    0.003780
   5 C :    0.012100
   6 C :   -0.164909
   7 C :    0.136074
   8 N :   -0.232153
   9 C :    0.145947
  10 N :   -0.059374
  11 N :   -0.245933
  12 C :    0.141512
  13 N :   -0.079897
  14 C :   -0.103416
  15 C :    0.120753
  16 O :   -0.191700
  17 C :    0.132207
  18 C :   -0.037746
  19 N :   -0.170195
  20 C :    0.065006
  21 C :    0.061654
  22 H :    0.008108
  23 H :    0.008218
  24 H :    0.020833
  25 H :    0.018023
  26 H :    0.025763
  27 H :    0.026712
  28 H :    0.025341
  29 H :    0.078526
  30 H :    0.076197
  31 H :    0.075951
  32 H :    0.075340
  33 H :    0.025716
  34 H :    0.019031
  35 H :    0.005260
  36 H :    0.008720
  37 H :   -0.005545
  38 H :    0.015342
  39 H :    0.008158
  40 H :    0.014748
  41 H :   -0.004636
  42 H :    0.006720

  Mayer bond orders larger than 0.100000
B(  0-C ,  1-O ) :   0.8687 B(  0-C , 22-H ) :   0.9846 B(  0-C , 23-H ) :   0.9849
B(  0-C , 24-H ) :   0.9921 B(  1-O ,  2-C ) :   0.9902 B(  2-C ,  3-C ) :   1.3294
B(  2-C , 18-C ) :   1.4069 B(  3-C ,  4-C ) :   1.4011 B(  3-C , 25-H ) :   1.0115
B(  4-C ,  5-C ) :   1.0152 B(  4-C , 14-C ) :   1.3783 B(  5-C ,  6-C ) :   0.9869
B(  5-C , 26-H ) :   0.9671 B(  5-C , 27-H ) :   0.9662 B(  6-C ,  7-C ) :   1.4274
B(  6-C , 12-C ) :   1.3408 B(  7-C ,  8-N ) :   1.4712 B(  7-C , 28-H ) :   1.0066
B(  8-N ,  9-C ) :   1.4489 B(  9-C , 10-N ) :   1.1815 B(  9-C , 11-N ) :   1.4248
B( 10-N , 29-H ) :   0.9522 B( 10-N , 30-H ) :   0.9533 B( 11-N , 12-C ) :   1.4726
B( 12-C , 13-N ) :   1.1468 B( 13-N , 31-H ) :   0.9523 B( 13-N , 32-H ) :   0.9487
B( 14-C , 15-C ) :   1.3445 B( 14-C , 33-H ) :   1.0118 B( 15-C , 16-O ) :   1.0379
B( 15-C , 18-C ) :   1.4407 B( 16-O , 17-C ) :   0.8736 B( 17-C , 34-H ) :   0.9921
B( 17-C , 35-H ) :   0.9856 B( 17-C , 36-H ) :   0.9840 B( 18-C , 19-N ) :   1.0431
B( 19-N , 20-C ) :   0.9292 B( 19-N , 21-C ) :   0.9339 B( 20-C , 37-H ) :   0.9816
B( 20-C , 38-H ) :   0.9884 B( 20-C , 39-H ) :   0.9903 B( 21-C , 40-H ) :   0.9902
B( 21-C , 41-H ) :   0.9791 B( 21-C , 42-H ) :   0.9903

FINAL SINGLE POINT ENERGY     -1001.441982590802

DIPOLE MOMENT
-------------
                                X             Y             Z
Electronic contribution:     15.87655       1.17257      -0.93024
Nuclear contribution   :    -15.24209      -1.37859       1.55391
                        -----------------------------------------
Total Dipole Moment    :      0.63445      -0.20602       0.62367
                        -----------------------------------------
Magnitude (a.u.)       :      0.91320
Magnitude (Debye)      :      2.32118

Rotational constants in cm-1:     0.015608     0.005038     0.004440
Rotational constants in MHz :   467.913626   151.045981   133.122622

                             ****ORCA TERMINATED NORMALLY****
TOTAL RUN TIME: 0 days 0 hours 0 minutes 24 seconds 687 msec
