                         Program Version 5.0.3 -  RELEASE  -
|  1> !RHF def2-SVP TightSCF PAL16
|  2> *xyz 0 1
|  3> O -1.724070787486553 0.26150839570153556 -2.36444816575723
|  4> C -1.2874667736737795 0.31679568688051574 -0.9890907859190213
|  5> C 0.2653603080049731 0.21648776219862773 -1.012529959918772
|  6> C 0.9420829443488803 0.23991085507942206 0.3661403118623807
|  7> N 2.401835807462253 0.0716544060445819 0.2638860626208155
|  8> C 3.0713952679581786 0.6216551904426955 1.4583169990801996
|  9> C 4.4783658892843325 0.05870289510215266 1.7052303554951442
| 10> C 5.151217438628381 -0.35184463807866323 0.4044973472271212
| 11> C 4.2948011744143475 -1.3661334618154721 -0.35659761970110027
| 12> C 2.8100098978186714 -1.3141341371815594 0.02555691411943017
| 13> C -1.7100808301629373 1.6938730809898788 -0.45366323767908456
| 14> C -1.710519175829464 2.811707062781502 -1.3109896181960976
| 15> C -2.0597203364318046 4.084316781071075 -0.8520534131329366
| 16> C -2.4102085400931452 4.271389937993322 0.480364629304402
| 17> C -2.407976808707792 3.18696305599709 1.351759943727358
| 18> C -2.0580844652906203 1.913237371197045 0.8911628973536293
| 19> C -1.9511844063216583 -0.8861498307081578 -0.2517801761136184
| 20> C -3.4810744418994646 -0.9526920717105916 -0.3823544449352144
| 21> C -3.8422331228761424 -2.3678213553598004 0.060393919120830517
| 22> C -2.5896316278380054 -3.212830299135418 -0.1587550461615872
| 23> C -1.5541028816715141 -2.275738453828101 -0.771332604932904
| 24> H -1.2265117921586757 -0.4398866899718028 -2.8143186768603607
| 25> H 0.5469215782789882 -0.6901265777949678 -1.5607534559140839
| 26> H 0.6721166422211404 1.0369153985951247 -1.6215600449933112
| 27> H 0.7337220170772408 1.215782955118521 0.8205385541173982
| 28> H 0.5234558651165372 -0.5212552873750841 1.0337556733339393
| 29> H 3.141003083731217 1.7091449899306344 1.3335869492313936
| 30> H 2.478645020797243 0.4419139921413372 2.3651549969811536
| 31> H 4.4106433751151055 -0.817194951839574 2.363253372962232
| 32> H 5.088755511297325 0.8027698979731319 2.2292853483473203
| 33> H 6.145389436617967 -0.7696864307381704 0.598232344446554
| 34> H 5.301039337082183 0.538128245975715 -0.21990222435843687
| 35> H 4.413109884324219 -1.188390942697734 -1.4326443262002981
| 36> H 4.668800653643068 -2.3792337674967516 -0.1657306199311525
| 37> H 2.2441740052943673 -1.7738041988963618 -0.7913499721251547
| 38> H 2.62476698362515 -1.9303911834126637 0.9154349329379055
| 39> H -1.4386846490363927 2.6933590829372545 -2.358607988474911
| 40> H -2.057062554954449 4.9259316735038405 -1.5394956010039598
| 41> H -2.6829152809016388 5.260068188533565 0.8386203832939537
| 42> H -2.677560991275962 3.330130724253166 2.3947959449615928
| 43> H -2.059785261057728 1.1021177956882844 1.6130356671782138
| 44> H -1.6996176536087486 -0.8593255862391055 0.8159486378396568
| 45> H -3.9923796910656137 -0.20349407588264998 0.22878025038874727
| 46> H -3.7997168730693955 -0.807898784539793 -1.42122196077611
| 47> H -4.11839668655339 -2.3794231417980445 1.120942368125462
| 48> H -4.696712690814048 -2.753077873242743 -0.5053882490405289
| 49> H -2.2307277146708486 -3.5987909074218596 0.802540545917467
| 50> H -2.7842013774984427 -4.073692432836098 -0.8060927040203144
| 51> H -0.539223995268946 -2.559692374133397 -0.47700907361508627
| 52> H -1.6177607119236868 -2.331755971994745 -1.8635453802129136
| 53> *
| 54>
| 55>                          ****END OF INPUT****

CARTESIAN COORDINATES (ANGSTROEM)
---------------------------------
  O     -1.724071    0.261508   -2.364448
  C     -1.287467    0.316796   -0.989091
  C      0.265360    0.216488   -1.012530
  C      0.942083    0.239911    0.366140
  N      2.401836    0.071654    0.263886
  C      3.071395    0.621655    1.458317
  C      4.478366    0.058703    1.705230
  C      5.151217   -0.351845    0.404497
  C      4.294801   -1.366133   -0.356598
  C      2.810010   -1.314134    0.025557
  C     -1.710081    1.693873   -0.453663
  C     -1.710519    2.811707   -1.310990
  C     -2.059720    4.084317   -0.852053
  C     -2.410209    4.271390    0.480365
  C     -2.407977    3.186963    1.351760
  C     -2.058084    1.913237    0.891163
  C     -1.951184   -0.886150   -0.251780
  C     -3.481074   -0.952692   -0.382354
  C     -3.842233   -2.367821    0.060394
  C     -2.589632   -3.212830   -0.158755
  C     -1.554103   -2.275738   -0.771333
  H     -1.226512   -0.439887   -2.814319
  H      0.546922   -0.690127   -1.560753
  H      0.672117    1.036915   -1.621560
  H      0.733722    1.215783    0.820539
  H      0.523456   -0.521255    1.033756
  H      3.141003    1.709145    1.333587
  H      2.478645    0.441914    2.365155
  H      4.410643   -0.817195    2.363253
  H      5.088756    0.802770    2.229285
  H      6.145389   -0.769686    0.598232
  H      5.301039    0.538128   -0.219902
  H      4.413110   -1.188391   -1.432644
  H      4.668801   -2.379234   -0.165731
  H      2.244174   -1.773804   -0.791350
  H      2.624767   -1.930391    0.915435
  H     -1.438685    2.693359   -2.358608
  H     -2.057063    4.925932   -1.539496
  H     -2.682915    5.260068    0.838620
  H     -2.677561    3.330131    2.394796
  H     -2.059785    1.102118    1.613036
  H     -1.699618   -0.859326    0.815949
  H     -3.992380   -0.203494    0.228780
  H     -3.799717   -0.807899   -1.421222
  H     -4.118397   -2.379423    1.120942
  H     -4.696713   -2.753078   -0.505388
  H     -2.230728   -3.598791    0.802541
  H     -2.784201   -4.073692   -0.806093
  H     -0.539224   -2.559692   -0.477009
  H     -1.617761   -2.331756   -1.863545

 Total Charge           Charge          ....    0
 Multiplicity           Mult            ....    1
 Number of Electrons    NEL             ....  158
 Basis Dimension        Dim             ....  439

ORBITAL ENERGIES
----------------

  NO   OCC          E(Eh)            E(eV)
   0   2.0000     -20.545268      -559.0652
   1   2.0000     -15.539689      -422.8564
   2   2.0000     -11.295529      -307.3670
   3   2.0000     -11.250846      -306.1511
   4   2.0000     -11.248689      -306.0924
   5   2.0000     -11.247328      -306.0554
   6   2.0000     -11.240770      -305.8769
   7   2.0000     -11.235756      -305.7405
   8   2.0000     -11.233789      -305.6869
   9   2.0000     -11.232024      -305.6389
  10   2.0000     -11.230878      -305.6077
  11   2.0000     -11.229637      -305.5740
  12   2.0000     -11.227298      -305.5103
  13   2.0000     -11.225774      -305.4688
  14   2.0000     -11.222788      -305.3876
  15   2.0000     -11.221946      -305.3647
  16   2.0000     -11.218009      -305.2575
  17   2.0000     -11.217477      -305.2431
  18   2.0000     -11.216923      -305.2280
  19   2.0000     -11.211918      -305.0918
  20   2.0000     -11.208287      -304.9930
  21   2.0000      -1.337917       -36.4066
  22   2.0000      -1.215176       -33.0666
  23   2.0000      -1.138121       -30.9698
  24   2.0000      -1.120402       -30.4877
  25   2.0000      -1.069074       -29.0910
  26   2.0000      -1.040361       -28.3097
  27   2.0000      -1.002052       -27.2672
  28   2.0000      -0.996736       -27.1226
  29   2.0000      -0.990771       -26.9602
  30   2.0000      -0.960372       -26.1330
  31   2.0000      -0.953110       -25.9354
  32   2.0000      -0.896435       -24.3932
  33   2.0000      -0.856242       -23.2995
  34   2.0000      -0.839832       -22.8530
  35   2.0000      -0.818345       -22.2683
  36   2.0000      -0.810529       -22.0556
  37   2.0000      -0.788817       -21.4648
  38   2.0000      -0.760229       -20.6869
  39   2.0000      -0.748208       -20.3598
  40   2.0000      -0.720688       -19.6109
  41   2.0000      -0.698251       -19.0004
  42   2.0000      -0.678923       -18.4744
  43   2.0000      -0.669749       -18.2248
  44   2.0000      -0.657865       -17.9014
  45   2.0000      -0.656679       -17.8692
  46   2.0000      -0.640592       -17.4314
  47   2.0000      -0.628329       -17.0977
  48   2.0000      -0.622823       -16.9479
  49   2.0000      -0.609880       -16.5957
  50   2.0000      -0.606946       -16.5158
  51   2.0000      -0.590698       -16.0737
  52   2.0000      -0.581362       -15.8197
  53   2.0000      -0.577374       -15.7111
  54   2.0000      -0.575510       -15.6604
  55   2.0000      -0.562881       -15.3168
  56   2.0000      -0.555232       -15.1086
  57   2.0000      -0.551150       -14.9976
  58   2.0000      -0.530813       -14.4442
  59   2.0000      -0.520145       -14.1539
  60   2.0000      -0.512526       -13.9465
  61   2.0000      -0.506426       -13.7806
  62   2.0000      -0.501602       -13.6493
  63   2.0000      -0.495585       -13.4856
  64   2.0000      -0.492061       -13.3897
  65   2.0000      -0.484568       -13.1858
  66   2.0000      -0.480321       -13.0702
  67   2.0000      -0.472120       -12.8470
  68   2.0000      -0.470831       -12.8120
  69   2.0000      -0.467312       -12.7162
  70   2.0000      -0.458726       -12.4826
  71   2.0000      -0.449190       -12.2231
  72   2.0000      -0.446179       -12.1411
  73   2.0000      -0.445226       -12.1152
  74   2.0000      -0.439116       -11.9489
  75   2.0000      -0.424450       -11.5499
  76   2.0000      -0.347709        -9.4617
  77   2.0000      -0.331197        -9.0123
  78   2.0000      -0.324936        -8.8420
  79   0.0000       0.133407         3.6302
  80   0.0000       0.136150         3.7048
  81   0.0000       0.160376         4.3641
  82   0.0000       0.173572         4.7231
  83   0.0000       0.178117         4.8468

MULLIKEN ATOMIC CHARGES
-----------------------
   0 O :   -0.456810
   1 C :    0.189949
   2 C :    0.063596
   3 C :    0.186639
   4 N :   -0.678746
   5 C :    0.216269
   6 C :   -0.107906
   7 C :   -0.042380
   8 C :   -0.016796
   9 C :    0.160345
  10 C :   -0.118188
  11 C :    0.003633
  12 C :   -0.034866
  13 C :   -0.033668
  14 C :   -0.034494
  15 C :   -0.042438
  16 C :   -0.240323
  17 C :    0.044507
  18 C :   -0.045672
  19 C :   -0.027704
  20 C :   -0.005222
  21 H :    0.198085
  22 H :    0.007990
  23 H :    0.042125
  24 H :    0.048420
  25 H :    0.002419
  26 H :    0.030281
  27 H :    0.006590
  28 H :    0.028049
  29 H :    0.037479
  30 H :    0.031299
  31 H :    0.033478
  32 H :    0.029509
  33 H :    0.022886
  34 H :    0.032502
  35 H :   -0.001436
  36 H :    0.048723
  37 H :    0.037936
  38 H :    0.036930
  39 H :    0.034693
  40 H :    0.030274
  41 H :    0.036727
  42 H :    0.035435
  43 H :    0.046418
  44 H :    0.025135
  45 H :    0.031790
  46 H :    0.027082
  47 H :    0.031474
  48 H :    0.032766
  49 H :    0.015217
Sum of atomic charges:    0.0000000

LOEWDIN ATOMIC CHARGES
----------------------
   0 O :   -0.177993
   1 C :    0.097103
   2 C :   -0.017256
   3 C :    0.067345
   4 N :   -0.204618
   5 C :    0.065719
   6 C :   -0.029410
   7 C :   -0.020408
   8 C :   -0.023161
   9 C :    0.059086
  10 C :   -0.025209
  11 C :   -0.006096
  12 C :   -0.026567
  13 C :   -0.029590
  14 C :   -0.029575
  15 C :   -0.027802
  16 C :   -0.036838
  17 C :   -0.010717
  18 C :   -0.021700
  19 C :   -0.018952
  20 C :   -0.017527
  21 H :    0.074869
  22 H :    0.004133
  23 H :    0.023455
  24 H :    0.018264
  25 H :   -0.008481
  26 H :    0.009145
  27 H :   -0.005274
  28 H :    0.010228
  29 H :    0.019128
  30 H :    0.014129
  31 H :    0.015463
  32 H :    0.015715
  33 H :    0.011866
  34 H :    0.009655
  35 H :   -0.012494
  36 H :    0.029583
  37 H :    0.026109
  38 H :    0.024595
  39 H :    0.025036
  40 H :    0.021103
  41 H :    0.008651
  42 H :    0.013198
  43 H :    0.018629
  44 H :    0.011355
  45 H :    0.013860
  46 H :    0.012795
  47 H :    0.013857
  48 H :    0.009617
  49 H :    0.005976

  Mayer bond orders larger than 0.100000
B(  0-O ,  1-C ) :   0.8928 B(  0-O , 21-H ) :   0.9673 B(  1-C ,  2-C ) :   1.0392
B(  1-C , 10-C ) :   0.9435 B(  1-C , 16-C ) :   0.9694 B(  2-C ,  3-C ) :   1.0168
B(  2-C , 22-H ) :   0.9598 B(  2-C , 23-H ) :   0.9628 B(  3-C ,  4-N ) :   0.9376
B(  3-C , 24-H ) :   0.9715 B(  3-C , 25-H ) :   0.9672 B(  4-N ,  5-C ) :   0.9197
B(  4-N ,  9-C ) :   0.9280 B(  5-C ,  6-C ) :   1.0303 B(  5-C , 26-H ) :   0.9749
B(  5-C , 27-H ) :   0.9736 B(  6-C ,  7-C ) :   1.0476 B(  6-C , 28-H ) :   0.9756
B(  6-C , 29-H ) :   0.9753 B(  7-C ,  8-C ) :   1.0174 B(  7-C , 30-H ) :   0.9802
B(  7-C , 31-H ) :   0.9694 B(  8-C ,  9-C ) :   1.0527 B(  8-C , 32-H ) :   0.9730
B(  8-C , 33-H ) :   0.9740 B(  9-C , 34-H ) :   0.9776 B(  9-C , 35-H ) :   0.9640
B( 10-C , 11-C ) :   1.4311 B( 10-C , 15-C ) :   1.4285 B( 11-C , 12-C ) :   1.4236
B( 11-C , 36-H ) :   0.9978 B( 12-C , 13-C ) :   1.4023 B( 12-C , 37-H ) :   1.0011
B( 13-C , 14-C ) :   1.4194 B( 13-C , 38-H ) :   1.0001 B( 14-C , 15-C ) :   1.4256
B( 14-C , 39-H ) :   0.9996 B( 15-C , 40-H ) :   1.0003 B( 16-C , 17-C ) :   1.0033
B( 16-C , 20-C ) :   1.0099 B( 16-C , 41-H ) :   0.9391 B( 17-C , 18-C ) :   1.0547
B( 17-C , 42-H ) :   0.9720 B( 17-C , 43-H ) :   0.9654 B( 18-C , 19-C ) :   1.0273
B( 18-C , 44-H ) :   0.9702 B( 18-C , 45-H ) :   0.9767 B( 19-C , 20-C ) :   1.0582
B( 19-C , 46-H ) :   0.9697 B( 19-C , 47-H ) :   0.9762 B( 20-C , 48-H ) :   0.9678
B( 20-C , 49-H ) :   0.9667

FINAL SINGLE POINT ENERGY      -865.036696315575

DIPOLE MOMENT
-------------
                                X             Y             Z
Electronic contribution:    -10.33627      13.46893      -4.12723
Nuclear contribution   :     10.82217     -14.01216       4.56516
                        -----------------------------------------
Total Dipole Moment    :      0.48591      -0.54322       0.43793
                        -----------------------------------------
Magnitude (a.u.)       :      0.85028
Magnitude (Debye)      :      2.16125

Rotational constants in cm-1:     0.012079     0.006529     0.004889
Rotational constants in MHz :   362.116500   195.736737   146.573598

                             ****ORCA TERMINATED NORMALLY****
TOTAL RUN TIME: 0 days 0 hours 0 minutes 32 seconds 875 msec
