                         Program Version 5.0.3 -  RELEASE  -
|  1> !RHF def2-SVP TightSCF PAL16
|  2> *xyz 0 1
|  3> C -0.4089920582244371 -3.20293575838855 -1.2647109674015697
|  4> N 0.14999018047186635 -2.3518529516873534 -0.21673893952044365
|  5> C 1.3852594524346042 -1.7175771138591227 -0.6993701962944797
|  6> C 1.8513114104084343 -0.5843952661747739 0.21937823672115653
|  7> C 3.276311270874588 -0.0653040615543386 -0.08543703395917629
|  8> C 3.532377452714274 0.44518477946442264 -1.5182538204491733
|  9> C 3.9103497266729903 -0.6468763127792666 -2.428945963876228
| 10> N 4.128376591419757 -1.5359149029128911 -3.143164138264626
| 11> C 4.616688795414788 1.5129518526607697 -1.4946273204564378
| 12> N 4.215761248495847 2.747937156340671 -1.0583927220288305
| 13> O 5.7864850284019544 1.3352146717186189 -1.8130133359010403
| 14> C 0.8148098303649521 0.5540648157577118 0.25058329576454946
| 15> C -0.6249072084623749 0.08062307064512522 -0.05197987163735916
| 16> C -1.6560495502321884 1.0257648438763014 0.5419392039296254
| 17> C -1.570473987734956 2.4252828930275427 0.5837218151909855
| 18> C -2.5925867167956778 3.1953047326874415 1.1600525531682664
| 19> C -3.7459013156411674 2.6087648330035584 1.7049349925059178
| 20> C -3.8342754815842524 1.2189151326186103 1.6277098100732248
| 21> N -4.8011388481400825 0.32225944171710386 2.0288157169296683
| 22> C -4.429644045398051 -0.964130887205468 1.6945177377276723
| 23> C -3.200278038914333 -0.8948924558644797 1.0813739205901196
| 24> C -2.8286326210359136 0.4628449054148176 1.0569269782463668
| 25> C -2.3052982943382134 -1.9134374549449686 0.4629116920909455
| 26> C -0.8088902126725218 -1.4179694599274668 0.43773271294169136
| 27> H -0.8391291917401246 -2.6146968545798828 -2.0828091880678214
| 28> H 0.36409729649220457 -3.8559169676656615 -1.6871487102014748
| 29> H -1.1743942793069584 -3.875916760221488 -0.8654367197961201
| 30> H 1.2332547416599642 -1.3213421319438485 -1.711823901675244
| 31> H 2.167349050845391 -2.48409245262588 -0.7579580729465846
| 32> H 1.904719059588247 -0.9960258353628688 1.2388506267067863
| 33> H 3.9912111801073604 -0.8672553265552847 0.14742283603623474
| 34> H 3.4908929987053985 0.7306535209745463 0.6405388458024699
| 35> H 2.632524394909972 0.9228852631687269 -1.9228689211089935
| 36> H 3.303256325906165 2.946779561713104 -0.672298060551052
| 37> H 4.928551050179635 3.4657734182623074 -0.9928011609105531
| 38> H 0.8683126574186123 1.019610962531475 1.2444803489346663
| 39> H 1.0724777734537814 1.3486429129366857 -0.4587255183933414
| 40> H -0.7790730903754266 0.09657599857205104 -1.1405274836251496
| 41> H -0.7052562883143455 2.935758084998466 0.16993475309973777
| 42> H -2.491132138052718 4.278714702003621 1.1848765992961998
| 43> H -4.529971723968057 3.212106917030462 2.1481681304346236
| 44> H -5.665936761747724 0.576275848630021 2.48528225578497
| 45> H -5.0796680379812145 -1.8000534714897427 1.9153281185092452
| 46> H -2.3736963695088455 -2.8575113906401155 1.016160413277476
| 47> H -2.667514060786393 -2.087809847743901 -0.5572635706800478
| 48> H -0.5115271959656434 -1.4129826556257497 1.4990495661117385
| 49> *
| 50>
| 51>                          ****END OF INPUT****

CARTESIAN COORDINATES (ANGSTROEM)
---------------------------------
  C     -0.408992   -3.202936   -1.264711
  N      0.149990   -2.351853   -0.216739
  C      1.385259   -1.717577   -0.699370
  C      1.851311   -0.584395    0.219378
  C      3.276311   -0.065304   -0.085437
  C      3.532377    0.445185   -1.518254
  C      3.910350   -0.646876   -2.428946
  N      4.128377   -1.535915   -3.143164
  C      4.616689    1.512952   -1.494627
  N      4.215761    2.747937   -1.058393
  O      5.786485    1.335215   -1.813013
  C      0.814810    0.554065    0.250583
  C     -0.624907    0.080623   -0.051980
  C     -1.656050    1.025765    0.541939
  C     -1.570474    2.425283    0.583722
  C     -2.592587    3.195305    1.160053
  C     -3.745901    2.608765    1.704935
  C     -3.834275    1.218915    1.627710
  N     -4.801139    0.322259    2.028816
  C     -4.429644   -0.964131    1.694518
  C     -3.200278   -0.894892    1.081374
  C     -2.828633    0.462845    1.056927
  C     -2.305298   -1.913437    0.462912
  C     -0.808890   -1.417969    0.437733
  H     -0.839129   -2.614697   -2.082809
  H      0.364097   -3.855917   -1.687149
  H     -1.174394   -3.875917   -0.865437
  H      1.233255   -1.321342   -1.711824
  H      2.167349   -2.484092   -0.757958
  H      1.904719   -0.996026    1.238851
  H      3.991211   -0.867255    0.147423
  H      3.490893    0.730654    0.640539
  H      2.632524    0.922885   -1.922869
  H      3.303256    2.946780   -0.672298
  H      4.928551    3.465773   -0.992801
  H      0.868313    1.019611    1.244480
  H      1.072478    1.348643   -0.458726
  H     -0.779073    0.096576   -1.140527
  H     -0.705256    2.935758    0.169935
  H     -2.491132    4.278715    1.184877
  H     -4.529972    3.212107    2.148168
  H     -5.665937    0.576276    2.485282
  H     -5.079668   -1.800053    1.915328
  H     -2.373696   -2.857511    1.016160
  H     -2.667514   -2.087810   -0.557264
  H     -0.511527   -1.412983    1.499050

 Total Charge           Charge          ....    0
 Multiplicity           Mult            ....    1
 Number of Electrons    NEL             ....  172
 Basis Dimension        Dim             ....  446

ORBITAL ENERGIES
----------------

  NO   OCC          E(Eh)            E(eV)
   0   2.0000     -20.531115      -558.6800
   1   2.0000     -15.605721      -424.6533
   2   2.0000     -15.602577      -424.5677
   3   2.0000     -15.574348      -423.7995
   4   2.0000     -15.545672      -423.0192
   5   2.0000     -11.379923      -309.6635
   6   2.0000     -11.306983      -307.6786
   7   2.0000     -11.282632      -307.0160
   8   2.0000     -11.275600      -306.8247
   9   2.0000     -11.270986      -306.6991
  10   2.0000     -11.269226      -306.6512
  11   2.0000     -11.268930      -306.6432
  12   2.0000     -11.257597      -306.3348
  13   2.0000     -11.249722      -306.1205
  14   2.0000     -11.249709      -306.1202
  15   2.0000     -11.248684      -306.0923
  16   2.0000     -11.247118      -306.0496
  17   2.0000     -11.243502      -305.9512
  18   2.0000     -11.242451      -305.9227
  19   2.0000     -11.240440      -305.8679
  20   2.0000     -11.239639      -305.8461
  21   2.0000     -11.232177      -305.6431
  22   2.0000     -11.223114      -305.3965
  23   2.0000     -11.215978      -305.2023
  24   2.0000      -1.380183       -37.5567
  25   2.0000      -1.292417       -35.1685
  26   2.0000      -1.219973       -33.1972
  27   2.0000      -1.210711       -32.9451
  28   2.0000      -1.204085       -32.7648
  29   2.0000      -1.141140       -31.0520
  30   2.0000      -1.119512       -30.4635
  31   2.0000      -1.088901       -29.6305
  32   2.0000      -1.066088       -29.0097
  33   2.0000      -1.024145       -27.8684
  34   2.0000      -0.998688       -27.1757
  35   2.0000      -0.988000       -26.8849
  36   2.0000      -0.940887       -25.6028
  37   2.0000      -0.935315       -25.4512
  38   2.0000      -0.894228       -24.3332
  39   2.0000      -0.873853       -23.7788
  40   2.0000      -0.832235       -22.6463
  41   2.0000      -0.823661       -22.4130
  42   2.0000      -0.819295       -22.2941
  43   2.0000      -0.802328       -21.8325
  44   2.0000      -0.759036       -20.6544
  45   2.0000      -0.754158       -20.5217
  46   2.0000      -0.728296       -19.8179
  47   2.0000      -0.718133       -19.5414
  48   2.0000      -0.715741       -19.4763
  49   2.0000      -0.679462       -18.4891
  50   2.0000      -0.673354       -18.3229
  51   2.0000      -0.660910       -17.9843
  52   2.0000      -0.653376       -17.7793
  53   2.0000      -0.647257       -17.6128
  54   2.0000      -0.640588       -17.4313
  55   2.0000      -0.622655       -16.9433
  56   2.0000      -0.614475       -16.7207
  57   2.0000      -0.607712       -16.5367
  58   2.0000      -0.604673       -16.4540
  59   2.0000      -0.598647       -16.2900
  60   2.0000      -0.589672       -16.0458
  61   2.0000      -0.582887       -15.8612
  62   2.0000      -0.579248       -15.7621
  63   2.0000      -0.572686       -15.5836
  64   2.0000      -0.563469       -15.3328
  65   2.0000      -0.550875       -14.9901
  66   2.0000      -0.548207       -14.9175
  67   2.0000      -0.535867       -14.5817
  68   2.0000      -0.533932       -14.5290
  69   2.0000      -0.525737       -14.3060
  70   2.0000      -0.521427       -14.1888
  71   2.0000      -0.507577       -13.8119
  72   2.0000      -0.501126       -13.6363
  73   2.0000      -0.490231       -13.3399
  74   2.0000      -0.482185       -13.1209
  75   2.0000      -0.467306       -12.7160
  76   2.0000      -0.462838       -12.5945
  77   2.0000      -0.460459       -12.5297
  78   2.0000      -0.451758       -12.2930
  79   2.0000      -0.445964       -12.1353
  80   2.0000      -0.435524       -11.8512
  81   2.0000      -0.426055       -11.5936
  82   2.0000      -0.379501       -10.3267
  83   2.0000      -0.345094        -9.3905
  84   2.0000      -0.312309        -8.4984
  85   2.0000      -0.279586        -7.6079
  86   0.0000       0.110050         2.9946
  87   0.0000       0.132577         3.6076
  88   0.0000       0.152457         4.1486
  89   0.0000       0.163788         4.4569
  90   0.0000       0.166145         4.5210

MULLIKEN ATOMIC CHARGES
-----------------------
   0 C :    0.164641
   1 N :   -0.687382
   2 C :    0.305313
   3 C :   -0.263336
   4 C :    0.060225
   5 C :   -0.209225
   6 C :   -0.013699
   7 N :   -0.102576
   8 C :    0.425069
   9 N :   -0.308400
  10 O :   -0.403502
  11 C :    0.086765
  12 C :   -0.101111
  13 C :   -0.030812
  14 C :   -0.071528
  15 C :   -0.007521
  16 C :   -0.096525
  17 C :    0.216368
  18 N :   -0.349155
  19 C :    0.132108
  20 C :   -0.214280
  21 C :   -0.091024
  22 C :    0.172211
  23 C :    0.156409
  24 H :    0.006454
  25 H :    0.039496
  26 H :    0.036412
  27 H :    0.004146
  28 H :    0.045610
  29 H :    0.054203
  30 H :    0.073968
  31 H :    0.052593
  32 H :    0.106220
  33 H :    0.156908
  34 H :    0.176751
  35 H :    0.039462
  36 H :    0.009163
  37 H :    0.045905
  38 H :    0.009244
  39 H :    0.035522
  40 H :    0.018584
  41 H :    0.154284
  42 H :    0.044460
  43 H :    0.044356
  44 H :    0.047200
  45 H :    0.030025
Sum of atomic charges:   -0.0000000

LOEWDIN ATOMIC CHARGES
----------------------
   0 C :    0.057430
   1 N :   -0.205138
   2 C :    0.068062
   3 C :   -0.029049
   4 C :    0.014104
   5 C :   -0.065097
   6 C :    0.014813
   7 N :   -0.098153
   8 C :    0.185439
   9 N :   -0.057730
  10 O :   -0.289845
  11 C :   -0.008610
  12 C :   -0.020450
  13 C :   -0.001793
  14 C :   -0.066791
  15 C :   -0.019083
  16 C :   -0.063567
  17 C :    0.039326
  18 N :   -0.003167
  19 C :    0.033397
  20 C :   -0.090582
  21 C :   -0.064455
  22 C :   -0.001564
  23 C :    0.068777
  24 H :   -0.008772
  25 H :    0.017852
  26 H :    0.012113
  27 H :   -0.008593
  28 H :    0.017385
  29 H :    0.025992
  30 H :    0.035243
  31 H :    0.022815
  32 H :    0.048228
  33 H :    0.076517
  34 H :    0.092510
  35 H :    0.019369
  36 H :    0.000758
  37 H :    0.022361
  38 H :    0.015489
  39 H :    0.025156
  40 H :    0.023104
  41 H :    0.085101
  42 H :    0.022702
  43 H :    0.026202
  44 H :    0.022867
  45 H :    0.009328

  Mayer bond orders larger than 0.100000
B(  0-C ,  1-N ) :   0.9387 B(  0-C , 24-H ) :   0.9794 B(  0-C , 25-H ) :   0.9877
B(  0-C , 26-H ) :   0.9860 B(  1-N ,  2-C ) :   0.9306 B(  1-N , 23-C ) :   0.9098
B(  2-C ,  3-C ) :   1.0249 B(  2-C , 27-H ) :   0.9573 B(  2-C , 28-H ) :   0.9716
B(  3-C ,  4-C ) :   1.0574 B(  3-C , 11-C ) :   0.9871 B(  3-C , 29-H ) :   0.9418
B(  4-C ,  5-C ) :   0.9665 B(  4-C , 30-H ) :   0.9637 B(  4-C , 31-H ) :   0.9804
B(  5-C ,  6-C ) :   0.9388 B(  5-C ,  8-C ) :   0.9327 B(  5-C , 32-H ) :   0.9505
B(  6-C ,  7-N ) :   3.0894 B(  8-C ,  9-N ) :   1.1871 B(  8-C , 10-O ) :   2.0247
B(  9-N , 33-H ) :   0.9497 B(  9-N , 34-H ) :   0.9474 B( 11-C , 12-C ) :   1.0354
B( 11-C , 35-H ) :   0.9637 B( 11-C , 36-H ) :   0.9645 B( 12-C , 13-C ) :   0.9326
B( 12-C , 23-C ) :   1.0061 B( 12-C , 37-H ) :   0.9084 B( 13-C , 14-C ) :   1.5024
B( 13-C , 21-C ) :   1.3591 B( 14-C , 15-C ) :   1.3582 B( 14-C , 38-H ) :   1.0040
B( 15-C , 16-C ) :   1.4744 B( 15-C , 39-H ) :   0.9952 B( 16-C , 17-C ) :   1.3133
B( 16-C , 40-H ) :   1.0155 B( 17-C , 18-N ) :   1.1070 B( 17-C , 21-C ) :   1.3241
B( 18-N , 19-C ) :   1.0996 B( 18-N , 41-H ) :   0.9458 B( 19-C , 20-C ) :   1.7104
B( 19-C , 42-H ) :   0.9983 B( 20-C , 21-C ) :   1.2275 B( 20-C , 22-C ) :   0.9779
B( 22-C , 23-C ) :   1.0497 B( 22-C , 43-H ) :   0.9619 B( 22-C , 44-H ) :   0.9526
B( 23-C , 45-H ) :   0.9620

FINAL SINGLE POINT ENERGY     -1024.186180005826

DIPOLE MOMENT
-------------
                                X             Y             Z
Electronic contribution:      0.58236       5.89707      -0.39871
Nuclear contribution   :     -3.26149      -4.56097       2.17550
                        -----------------------------------------
Total Dipole Moment    :     -2.67913       1.33610       1.77678
                        -----------------------------------------
Magnitude (a.u.)       :      3.48135
Magnitude (Debye)      :      8.84890

Rotational constants in cm-1:     0.015367     0.004302     0.003492
Rotational constants in MHz :   460.688550   128.979753   104.683738

                             ****ORCA TERMINATED NORMALLY****
TOTAL RUN TIME: 0 days 0 hours 0 minutes 37 seconds 721 msec
