                         Program Version 5.0.3 -  RELEASE  -
|  1> !RHF def2-SVP TightSCF PAL16
|  2> *xyz 0 1
|  3> O 5.907139244636322 -0.7981289686504502 -1.226986746122104
|  4> C 5.376173168403825 -0.34359431411321845 -0.2305560685629726
|  5> O 6.104972412606627 0.21487566247496284 0.7526880608237023
|  6> C 3.9214250212208563 -0.3323264789677719 0.05357115859508842
|  7> C 3.051912094200585 -0.8725503688972622 -0.8960641915853562
|  8> C 1.66871569971559 -0.8805363472661689 -0.6681690928172225
|  9> C 1.1240665790893811 -0.3753929818310435 0.5153396212896288
| 10> N -0.24319730743921394 -0.2916986720473891 0.7942144294187339
| 11> C -1.2407789788957508 -1.0449187681477412 0.040453589785682496
| 12> O -2.30689718240635 -1.3637495038551244 0.9545229809019365
| 13> C -3.0572920545533573 -0.23118289047494317 1.4004069279955453
| 14> C -3.6707563975256017 0.557682146663912 0.2469518421086036
| 15> O -4.324236631716029 1.744104089330935 0.705875285948146
| 16> C -2.5815591689815656 0.9464705851164009 -0.7517360040806503
| 17> O -3.1809778386616885 1.5647406187983084 -1.906347033248476
| 18> C -1.817848971464095 -0.3010023643903713 -1.1933070295296502
| 19> O -0.8580677912113307 0.043133351102319334 -2.198071662517136
| 20> C 2.0125587868526207 0.1935666136281713 1.443785464355207
| 21> C 3.3956860901524433 0.2081791771238659 1.2275967399577916
| 22> H 7.026683832460463 0.1387781988883245 0.4284443801366566
| 23> H 3.4395855282458827 -1.2819063086618576 -1.826933208913319
| 24> H 1.0381510550465693 -1.2938065818001032 -1.4494091494629773
| 25> H -0.38676226020868826 -0.4562629326996545 1.7875784163656212
| 26> H -0.8234647586702506 -2.0071567487234416 -0.2766730334447458
| 27> H -2.437541332980104 0.41420277861985755 2.034478912020602
| 28> H -3.856274131357407 -0.6004572810792208 2.0532687209174134
| 29> H -4.426220403141175 -0.04963719821049067 -0.2668541717248029
| 30> H -5.054048483811053 1.4700347930387498 1.2900024327974688
| 31> H -1.902184416545416 1.697790718819606 -0.3317524232776038
| 32> H -3.7494303812193728 2.273280869349977 -1.542555479413189
| 33> H -2.5295887999150954 -0.9739341538631082 -1.689970773657585
| 34> H -1.292088527839071 0.7354055225827352 -2.7364612553539724
| 35> H 1.626774232605805 0.6439118963261627 2.356020870862485
| 36> H 4.045372073301152 0.6520858418166274 1.97719167331127
| 37> *
| 38>
| 39>                          ****END OF INPUT****

CARTESIAN COORDINATES (ANGSTROEM)
---------------------------------
  O      5.907139   -0.798129   -1.226987
  C      5.376173   -0.343594   -0.230556
  O      6.104972    0.214876    0.752688
  C      3.921425   -0.332326    0.053571
  C      3.051912   -0.872550   -0.896064
  C      1.668716   -0.880536   -0.668169
  C      1.124067   -0.375393    0.515340
  N     -0.243197   -0.291699    0.794214
  C     -1.240779   -1.044919    0.040454
  O     -2.306897   -1.363750    0.954523
  C     -3.057292   -0.231183    1.400407
  C     -3.670756    0.557682    0.246952
  O     -4.324237    1.744104    0.705875
  C     -2.581559    0.946471   -0.751736
  O     -3.180978    1.564741   -1.906347
  C     -1.817849   -0.301002   -1.193307
  O     -0.858068    0.043133   -2.198072
  C      2.012559    0.193567    1.443785
  C      3.395686    0.208179    1.227597
  H      7.026684    0.138778    0.428444
  H      3.439586   -1.281906   -1.826933
  H      1.038151   -1.293807   -1.449409
  H     -0.386762   -0.456263    1.787578
  H     -0.823465   -2.007157   -0.276673
  H     -2.437541    0.414203    2.034479
  H     -3.856274   -0.600457    2.053269
  H     -4.426220   -0.049637   -0.266854
  H     -5.054048    1.470035    1.290002
  H     -1.902184    1.697791   -0.331752
  H     -3.749430    2.273281   -1.542555
  H     -2.529589   -0.973934   -1.689971
  H     -1.292089    0.735406   -2.736461
  H      1.626774    0.643912    2.356021
  H      4.045372    0.652086    1.977192

 Total Charge           Charge          ....    0
 Multiplicity           Mult            ....    1
 Number of Electrons    NEL             ....  142
 Basis Dimension        Dim             ....  341

ORBITAL ENERGIES
----------------

  NO   OCC          E(Eh)            E(eV)
   0   2.0000     -20.599466      -560.5400
   1   2.0000     -20.586131      -560.1771
   2   2.0000     -20.584114      -560.1222
   3   2.0000     -20.566228      -559.6355
   4   2.0000     -20.558846      -559.4346
   5   2.0000     -20.529261      -558.6296
   6   2.0000     -15.583307      -424.0433
   7   2.0000     -11.381913      -309.7176
   8   2.0000     -11.345203      -308.7187
   9   2.0000     -11.307066      -307.6809
  10   2.0000     -11.306093      -307.6544
  11   2.0000     -11.300497      -307.5022
  12   2.0000     -11.296654      -307.3976
  13   2.0000     -11.296142      -307.3837
  14   2.0000     -11.255120      -306.2674
  15   2.0000     -11.252014      -306.1829
  16   2.0000     -11.238586      -305.8175
  17   2.0000     -11.238542      -305.8163
  18   2.0000     -11.232810      -305.6603
  19   2.0000      -1.441923       -39.2367
  20   2.0000      -1.399744       -38.0890
  21   2.0000      -1.375618       -37.4325
  22   2.0000      -1.357715       -36.9453
  23   2.0000      -1.332180       -36.2505
  24   2.0000      -1.326995       -36.1094
  25   2.0000      -1.240008       -33.7423
  26   2.0000      -1.139432       -31.0055
  27   2.0000      -1.059131       -28.8204
  28   2.0000      -1.038370       -28.2555
  29   2.0000      -1.010728       -27.5033
  30   2.0000      -0.998361       -27.1668
  31   2.0000      -0.895420       -24.3656
  32   2.0000      -0.881179       -23.9781
  33   2.0000      -0.867513       -23.6062
  34   2.0000      -0.835068       -22.7234
  35   2.0000      -0.799457       -21.7543
  36   2.0000      -0.780504       -21.2386
  37   2.0000      -0.746603       -20.3161
  38   2.0000      -0.734249       -19.9799
  39   2.0000      -0.718990       -19.5647
  40   2.0000      -0.709465       -19.3055
  41   2.0000      -0.700464       -19.0606
  42   2.0000      -0.687407       -18.7053
  43   2.0000      -0.680268       -18.5110
  44   2.0000      -0.665716       -18.1151
  45   2.0000      -0.645520       -17.5655
  46   2.0000      -0.641825       -17.4650
  47   2.0000      -0.628324       -17.0976
  48   2.0000      -0.627176       -17.0663
  49   2.0000      -0.620069       -16.8729
  50   2.0000      -0.603487       -16.4217
  51   2.0000      -0.598816       -16.2946
  52   2.0000      -0.593013       -16.1367
  53   2.0000      -0.590067       -16.0565
  54   2.0000      -0.584551       -15.9064
  55   2.0000      -0.571402       -15.5486
  56   2.0000      -0.549668       -14.9572
  57   2.0000      -0.546197       -14.8628
  58   2.0000      -0.528680       -14.3861
  59   2.0000      -0.511613       -13.9217
  60   2.0000      -0.506473       -13.7818
  61   2.0000      -0.499257       -13.5855
  62   2.0000      -0.488908       -13.3039
  63   2.0000      -0.475367       -12.9354
  64   2.0000      -0.462536       -12.5863
  65   2.0000      -0.451261       -12.2794
  66   2.0000      -0.449153       -12.2221
  67   2.0000      -0.445435       -12.1209
  68   2.0000      -0.435095       -11.8395
  69   2.0000      -0.342749        -9.3267
  70   2.0000      -0.313417        -8.5285
  71   0.0000       0.098873         2.6905
  72   0.0000       0.125921         3.4265
  73   0.0000       0.148325         4.0361
  74   0.0000       0.175338         4.7712
  75   0.0000       0.184475         5.0198

MULLIKEN ATOMIC CHARGES
-----------------------
   0 O :   -0.419151
   1 C :    0.582227
   2 O :   -0.355995
   3 C :   -0.324516
   4 C :    0.067186
   5 C :   -0.106541
   6 C :    0.218698
   7 N :   -0.424642
   8 C :    0.368546
   9 O :   -0.609738
  10 C :    0.326730
  11 C :    0.150457
  12 O :   -0.464859
  13 C :    0.169496
  14 O :   -0.485529
  15 C :    0.310357
  16 O :   -0.457339
  17 C :   -0.102742
  18 C :    0.065083
  19 H :    0.223198
  20 H :    0.068804
  21 H :    0.054122
  22 H :    0.168306
  23 H :    0.051439
  24 H :    0.028099
  25 H :    0.033845
  26 H :    0.036720
  27 H :    0.206934
  28 H :    0.053791
  29 H :    0.220511
  30 H :    0.035285
  31 H :    0.224800
  32 H :    0.024727
  33 H :    0.061691
Sum of atomic charges:   -0.0000000

LOEWDIN ATOMIC CHARGES
----------------------
   0 O :   -0.293181
   1 C :    0.213032
   2 O :   -0.108134
   3 C :   -0.138507
   4 C :    0.054810
   5 C :   -0.069743
   6 C :    0.078429
   7 N :   -0.109589
   8 C :    0.184727
   9 O :   -0.248635
  10 C :    0.115001
  11 C :    0.079316
  12 O :   -0.192641
  13 C :    0.089227
  14 O :   -0.206654
  15 C :    0.092458
  16 O :   -0.190061
  17 C :   -0.073548
  18 C :    0.035063
  19 H :    0.113993
  20 H :    0.043317
  21 H :    0.029197
  22 H :    0.079045
  23 H :    0.014807
  24 H :    0.005662
  25 H :    0.015721
  26 H :    0.010459
  27 H :    0.092557
  28 H :    0.016911
  29 H :    0.095960
  30 H :    0.013421
  31 H :    0.096962
  32 H :    0.022892
  33 H :    0.037727

  Mayer bond orders larger than 0.100000
B(  0-O ,  1-C ) :   1.9991 B(  1-C ,  2-O ) :   1.1516 B(  1-C ,  3-C ) :   0.9841
B(  2-O , 19-H ) :   0.9428 B(  3-C ,  4-C ) :   1.3969 B(  3-C , 18-C ) :   1.3592
B(  4-C ,  5-C ) :   1.4420 B(  4-C , 20-H ) :   0.9983 B(  5-C ,  6-C ) :   1.3655
B(  5-C , 21-H ) :   0.9965 B(  6-C ,  7-N ) :   1.0414 B(  6-C , 17-C ) :   1.3463
B(  7-N ,  8-C ) :   0.9189 B(  7-N , 22-H ) :   0.9269 B(  8-C ,  9-O ) :   0.9031
B(  8-C , 15-C ) :   0.9878 B(  8-C , 23-H ) :   0.9645 B(  9-O , 10-C ) :   0.8736
B( 10-C , 11-C ) :   1.0007 B( 10-C , 24-H ) :   0.9691 B( 10-C , 25-H ) :   0.9733
B( 11-C , 12-O ) :   0.9213 B( 11-C , 13-C ) :   1.0029 B( 11-C , 26-H ) :   0.9563
B( 12-O , 27-H ) :   0.9653 B( 13-C , 14-O ) :   0.9242 B( 13-C , 15-C ) :   0.9916
B( 13-C , 28-H ) :   0.9576 B( 14-O , 29-H ) :   0.9545 B( 15-C , 16-O ) :   0.9727
B( 15-C , 30-H ) :   0.9684 B( 16-O , 31-H ) :   0.9475 B( 17-C , 18-C ) :   1.4747
B( 17-C , 32-H ) :   1.0045 B( 18-C , 33-H ) :   0.9965

FINAL SINGLE POINT ENERGY      -966.038127462298

DIPOLE MOMENT
-------------
                                X             Y             Z
Electronic contribution:     12.29725      -1.42962      -1.19123
Nuclear contribution   :    -14.31784       1.82180       2.68047
                        -----------------------------------------
Total Dipole Moment    :     -2.02059       0.39218       1.48923
                        -----------------------------------------
Magnitude (a.u.)       :      2.54055
Magnitude (Debye)      :      6.45757

Rotational constants in cm-1:     0.032459     0.005047     0.004784
Rotational constants in MHz :   973.109871   151.292146   143.427409

                             ****ORCA TERMINATED NORMALLY****
TOTAL RUN TIME: 0 days 0 hours 0 minutes 16 seconds 553 msec
