                         Program Version 5.0.3 -  RELEASE  -
|  1> !RHF def2-SVP TightSCF PAL16
|  2> *xyz 0 1
|  3> C 5.596369815064216 1.4633909874270192 0.953374523070835
|  4> C 4.939050820209169 0.2902249127503627 0.2889069082959016
|  5> C 5.623001555277851 -0.4577567422935799 -0.6777791465878691
|  6> C 5.025058235634897 -1.5782265159503346 -1.2627913733954492
|  7> C 3.7377979608390195 -1.961804685298993 -0.8847011308479814
|  8> Cl 3.0417535987075817 -3.360546645600152 -1.6165917520687698
|  9> C 3.0491378054062954 -1.2163773189468956 0.07385655429849594
| 10> O 1.8009566816839695 -1.5732448953581508 0.5099120941178361
| 11> C 0.7821799790365157 -0.9507977995119943 -0.29265832466886127
| 12> C -0.40479474602607485 -0.6012900511066022 0.6114272425137316
| 13> O -0.08166404158835822 0.5507800122257701 1.410111839167294
| 14> C -1.6627659907465637 -0.2777079579629102 -0.21960947024269528
| 15> N -2.7354178708216623 0.1673355054816664 0.6878431034905654
| 16> C -3.99883960731974 0.5702871797961467 0.03840590193226197
| 17> C -4.937300691472625 1.020308921357791 1.1748711010733968
| 18> C -3.8002799777392773 1.7545836726693553 -0.9209654413888702
| 19> C -4.6606072089519035 -0.6021779566466828 -0.704041263502835
| 20> C 3.652666015411158 -0.10790090450600126 0.6735877152017956
| 21> H 4.858793321637582 2.2334696611264953 1.201200238669712
| 22> H 6.094194112138496 1.1413920534601958 1.872636029593558
| 23> H 6.33905901244827 1.923946436787699 0.29305519106818445
| 24> H 6.631577618557844 -0.1781049179628847 -0.9752936806980216
| 25> H 5.574648103908142 -2.1532154085246766 -2.003602690200252
| 26> H 1.1497563116319067 -0.042217799859943686 -0.7893463015874437
| 27> H 0.4754249942648379 -1.674760142937408 -1.0558565850074495
| 28> H -0.6054086229934237 -1.4250833034142563 1.3071167772328038
| 29> H -0.950807710042727 0.9314174659246298 1.6537190697968127
| 30> H -1.414389898896188 0.5266726270391193 -0.9198372362645686
| 31> H -1.9609411812201367 -1.1651120894292595 -0.7865542190128255
| 32> H -2.9331443601787313 -0.5824873978132448 1.3544995354483877
| 33> H -4.513162578384599 1.8627948355493036 1.7334412750239436
| 34> H -5.90884817556506 1.3420383762304176 0.7820197701761673
| 35> H -5.125864584665788 0.20814581707262136 1.886831630004745
| 36> H -4.7652902796032865 2.14050517813099 -1.271112547559054
| 37> H -3.2753502373830368 2.5816078135711384 -0.42914609288099215
| 38> H -3.2281565534520014 1.4709088828869725 -1.810410596658279
| 39> H -4.7829341558493885 -1.4714886247366006 -0.0479556429809236
| 40> H -5.657045374338621 -0.32259637632701577 -1.0662936542066395
| 41> H -4.07748302328386 -0.9168009168137498 -1.575916889163938
| 42> H 3.1090709286658247 0.43988811151386054 1.4410832289094433
| 43> *
| 44>
| 45>                          ****END OF INPUT****

CARTESIAN COORDINATES (ANGSTROEM)
---------------------------------
  C      5.596370    1.463391    0.953375
  C      4.939051    0.290225    0.288907
  C      5.623002   -0.457757   -0.677779
  C      5.025058   -1.578227   -1.262791
  C      3.737798   -1.961805   -0.884701
  Cl     3.041754   -3.360547   -1.616592
  C      3.049138   -1.216377    0.073857
  O      1.800957   -1.573245    0.509912
  C      0.782180   -0.950798   -0.292658
  C     -0.404795   -0.601290    0.611427
  O     -0.081664    0.550780    1.410112
  C     -1.662766   -0.277708   -0.219609
  N     -2.735418    0.167336    0.687843
  C     -3.998840    0.570287    0.038406
  C     -4.937301    1.020309    1.174871
  C     -3.800280    1.754584   -0.920965
  C     -4.660607   -0.602178   -0.704041
  C      3.652666   -0.107901    0.673588
  H      4.858793    2.233470    1.201200
  H      6.094194    1.141392    1.872636
  H      6.339059    1.923946    0.293055
  H      6.631578   -0.178105   -0.975294
  H      5.574648   -2.153215   -2.003603
  H      1.149756   -0.042218   -0.789346
  H      0.475425   -1.674760   -1.055857
  H     -0.605409   -1.425083    1.307117
  H     -0.950808    0.931417    1.653719
  H     -1.414390    0.526673   -0.919837
  H     -1.960941   -1.165112   -0.786554
  H     -2.933144   -0.582487    1.354500
  H     -4.513163    1.862795    1.733441
  H     -5.908848    1.342038    0.782020
  H     -5.125865    0.208146    1.886832
  H     -4.765290    2.140505   -1.271113
  H     -3.275350    2.581608   -0.429146
  H     -3.228157    1.470909   -1.810411
  H     -4.782934   -1.471489   -0.047956
  H     -5.657045   -0.322596   -1.066294
  H     -4.077483   -0.916801   -1.575917
  H      3.109071    0.439888    1.441083

 Total Charge           Charge          ....    0
 Multiplicity           Mult            ....    1
 Number of Electrons    NEL             ....  146
 Basis Dimension        Dim             ....  366

ORBITAL ENERGIES
----------------

  NO   OCC          E(Eh)            E(eV)
   0   2.0000    -104.789018     -2851.4541
   1   2.0000     -20.564420      -559.5863
   2   2.0000     -20.532278      -558.7117
   3   2.0000     -15.557115      -423.3306
   4   2.0000     -11.301102      -307.5186
   5   2.0000     -11.288430      -307.1738
   6   2.0000     -11.287001      -307.1349
   7   2.0000     -11.280929      -306.9697
   8   2.0000     -11.273121      -306.7572
   9   2.0000     -11.262187      -306.4597
  10   2.0000     -11.249961      -306.1270
  11   2.0000     -11.248251      -306.0805
  12   2.0000     -11.237828      -305.7968
  13   2.0000     -11.233417      -305.6768
  14   2.0000     -11.231796      -305.6327
  15   2.0000     -11.228335      -305.5385
  16   2.0000     -11.227689      -305.5210
  17   2.0000     -11.225801      -305.4696
  18   2.0000     -10.552507      -287.1483
  19   2.0000      -8.027681      -218.4443
  20   2.0000      -8.024080      -218.3463
  21   2.0000      -8.023997      -218.3441
  22   2.0000      -1.385144       -37.6917
  23   2.0000      -1.322723       -35.9931
  24   2.0000      -1.209894       -32.9229
  25   2.0000      -1.171559       -31.8797
  26   2.0000      -1.114537       -30.3281
  27   2.0000      -1.061290       -28.8792
  28   2.0000      -1.024626       -27.8815
  29   2.0000      -1.015636       -27.6368
  30   2.0000      -0.984068       -26.7779
  31   2.0000      -0.935060       -25.4443
  32   2.0000      -0.933202       -25.3937
  33   2.0000      -0.914503       -24.8849
  34   2.0000      -0.894723       -24.3466
  35   2.0000      -0.830680       -22.6039
  36   2.0000      -0.804913       -21.9028
  37   2.0000      -0.787012       -21.4157
  38   2.0000      -0.758213       -20.6320
  39   2.0000      -0.697826       -18.9888
  40   2.0000      -0.695231       -18.9182
  41   2.0000      -0.673790       -18.3348
  42   2.0000      -0.661445       -17.9988
  43   2.0000      -0.657225       -17.8840
  44   2.0000      -0.646800       -17.6003
  45   2.0000      -0.635608       -17.2958
  46   2.0000      -0.616277       -16.7698
  47   2.0000      -0.608286       -16.5523
  48   2.0000      -0.605722       -16.4825
  49   2.0000      -0.590842       -16.0776
  50   2.0000      -0.582890       -15.8612
  51   2.0000      -0.577473       -15.7139
  52   2.0000      -0.569130       -15.4868
  53   2.0000      -0.561611       -15.2822
  54   2.0000      -0.548798       -14.9336
  55   2.0000      -0.538117       -14.6429
  56   2.0000      -0.537051       -14.6139
  57   2.0000      -0.533060       -14.5053
  58   2.0000      -0.521945       -14.2028
  59   2.0000      -0.520701       -14.1690
  60   2.0000      -0.515225       -14.0200
  61   2.0000      -0.509339       -13.8598
  62   2.0000      -0.504685       -13.7332
  63   2.0000      -0.490179       -13.3385
  64   2.0000      -0.475640       -12.9428
  65   2.0000      -0.466967       -12.7068
  66   2.0000      -0.452116       -12.3027
  67   2.0000      -0.447521       -12.1777
  68   2.0000      -0.442724       -12.0471
  69   2.0000      -0.430935       -11.7263
  70   2.0000      -0.384587       -10.4652
  71   2.0000      -0.335735        -9.1358
  72   2.0000      -0.318438        -8.6651
  73   0.0000       0.122967         3.3461
  74   0.0000       0.135023         3.6742
  75   0.0000       0.155681         4.2363
  76   0.0000       0.184174         5.0116
  77   0.0000       0.190226         5.1763

MULLIKEN ATOMIC CHARGES
-----------------------
   0 C :    0.070622
   1 C :   -0.166317
   2 C :   -0.042209
   3 C :    0.007580
   4 C :   -0.006231
   5 Cl:   -0.120949
   6 C :    0.231678
   7 O :   -0.567341
   8 C :    0.344963
   9 C :    0.159479
  10 O :   -0.479683
  11 C :    0.165964
  12 N :   -0.499748
  13 C :   -0.254405
  14 C :    0.059317
  15 C :    0.046273
  16 C :    0.049063
  17 C :   -0.039712
  18 H :    0.043699
  19 H :    0.059328
  20 H :    0.036376
  21 H :    0.032813
  22 H :    0.043930
  23 H :    0.040912
  24 H :    0.027985
  25 H :    0.027902
  26 H :    0.207580
  27 H :    0.036922
  28 H :    0.021979
  29 H :    0.134069
  30 H :    0.038214
  31 H :    0.026951
  32 H :    0.021125
  33 H :    0.032568
  34 H :    0.041622
  35 H :    0.030577
  36 H :    0.022781
  37 H :    0.029755
  38 H :    0.032814
  39 H :    0.051752
Sum of atomic charges:   -0.0000000

LOEWDIN ATOMIC CHARGES
----------------------
   0 C :   -0.019499
   1 C :   -0.021454
   2 C :   -0.044397
   3 C :   -0.021555
   4 C :   -0.150760
   5 Cl:    0.094636
   6 C :    0.063543
   7 O :   -0.205758
   8 C :    0.139442
   9 C :    0.099191
  10 O :   -0.215737
  11 C :    0.047845
  12 N :   -0.151006
  13 C :    0.003491
  14 C :   -0.023276
  15 C :   -0.024263
  16 C :   -0.034138
  17 C :   -0.036041
  18 H :    0.026454
  19 H :    0.031690
  20 H :    0.023262
  21 H :    0.025973
  22 H :    0.032170
  23 H :    0.016074
  24 H :    0.007075
  25 H :    0.006379
  26 H :    0.075006
  27 H :    0.015431
  28 H :   -0.000671
  29 H :    0.055307
  30 H :    0.018641
  31 H :    0.015597
  32 H :    0.011666
  33 H :    0.020876
  34 H :    0.021144
  35 H :    0.012830
  36 H :    0.012930
  37 H :    0.018615
  38 H :    0.013429
  39 H :    0.039861

  Mayer bond orders larger than 0.100000
B(  0-C ,  1-C ) :   0.9983 B(  0-C , 18-H ) :   0.9855 B(  0-C , 19-H ) :   0.9736
B(  0-C , 20-H ) :   0.9868 B(  1-C ,  2-C ) :   1.4050 B(  1-C , 17-C ) :   1.3754
B(  2-C ,  3-C ) :   1.4352 B(  2-C , 21-H ) :   1.0039 B(  3-C ,  4-C ) :   1.4043
B(  3-C , 22-H ) :   1.0000 B(  4-C ,  5-Cl) :   0.9711 B(  4-C ,  6-C ) :   1.4153
B(  6-C ,  7-O ) :   0.9811 B(  6-C , 17-C ) :   1.4373 B(  7-O ,  8-C ) :   0.8479
B(  8-C ,  9-C ) :   1.0263 B(  8-C , 23-H ) :   0.9516 B(  8-C , 24-H ) :   0.9739
B(  9-C , 10-O ) :   0.9374 B(  9-C , 11-C ) :   1.0231 B(  9-C , 25-H ) :   0.9571
B( 10-O , 26-H ) :   0.9473 B( 11-C , 12-N ) :   0.9321 B( 11-C , 27-H ) :   0.9614
B( 11-C , 28-H ) :   0.9627 B( 12-N , 13-C ) :   0.9126 B( 12-N , 29-H ) :   0.9453
B( 13-C , 14-C ) :   1.0185 B( 13-C , 15-C ) :   1.0063 B( 13-C , 16-C ) :   0.9925
B( 14-C , 30-H ) :   0.9838 B( 14-C , 31-H ) :   0.9844 B( 14-C , 32-H ) :   0.9817
B( 15-C , 33-H ) :   0.9831 B( 15-C , 34-H ) :   0.9811 B( 15-C , 35-H ) :   0.9817
B( 16-C , 36-H ) :   0.9806 B( 16-C , 37-H ) :   0.9809 B( 16-C , 38-H ) :   0.9819
B( 17-C , 39-H ) :   1.0107

FINAL SINGLE POINT ENERGY     -1205.915359435894

DIPOLE MOMENT
-------------
                                X             Y             Z
Electronic contribution:     34.12609     -21.59017      -5.56533
Nuclear contribution   :    -34.99828      22.19000       5.07751
                        -----------------------------------------
Total Dipole Moment    :     -0.87219       0.59983      -0.48782
                        -----------------------------------------
Magnitude (a.u.)       :      1.16554
Magnitude (Debye)      :      2.96256

Rotational constants in cm-1:     0.023142     0.004578     0.004044
Rotational constants in MHz :   693.767860   137.249003   121.248368

                             ****ORCA TERMINATED NORMALLY****
TOTAL RUN TIME: 0 days 0 hours 0 minutes 17 seconds 520 msec
