                         Program Version 5.0.3 -  RELEASE  -
|  1> !RHF def2-SVP TightSCF PAL16
|  2> *xyz 0 1
|  3> C 2.1106938384068687 2.781565727391345 -0.678501404830865
|  4> O 0.9151479813774205 2.038479710512111 -0.4759338752813366
|  5> C 1.0331556061561764 0.6960604920187647 -0.23488764370100235
|  6> C 2.1845210524272183 -0.07089930145075571 -0.3393380652256102
|  7> C 2.163554341140931 -1.4307626853204192 -0.1101567037210406
|  8> C 1.0115147210828253 -2.1068014518027094 0.22458109827543396
|  9> C -0.1744354916833987 -1.3702693091184928 0.3297348608022483
| 10> C -0.16804955521881754 0.036683650686241694 0.12350592560604706
| 11> C -1.4677967021014902 0.8264557183527272 0.24003390123450113
| 12> O -1.8995747164173744 1.1712760434059621 -1.070900474366778
| 13> N -2.5221936744972315 0.12120170127194536 0.9805460847198595
| 14> C -3.776106670306647 0.868894917362756 0.9561633942751523
| 15> C -2.7034555701977454 -1.2309644218086202 0.44663947860065456
| 16> C -1.4523162566720906 -2.073058953496059 0.718358928391712
| 17> O 3.3837264212019287 -2.015699642598754 -0.2601602799507792
| 18> C 4.18684559055823 -0.8782440476332813 -0.6140121659851671
| 19> O 3.438342303303618 0.3495665554457292 -0.6744643498872133
| 20> H 2.587753121908376 2.507315554564857 -1.6243867052986545
| 21> H 1.8338053854439555 3.838225988231079 -0.7481883772711309
| 22> H 2.79514856009868 2.679092578406201 0.16977308944222774
| 23> H 1.0321476025778964 -3.1776488899676707 0.3974559813026208
| 24> H -1.2571454559587887 1.7563306416149487 0.7834216751592072
| 25> H -1.116835630500909 1.5615514540932403 -1.4975870947373442
| 26> H -4.514575076842482 0.3887979943000851 1.6082288008297396
| 27> H -4.210975315216778 0.9409665636424007 -0.047147966294179694
| 28> H -3.6312677580395194 1.882877967024612 1.3455207668976457
| 29> H -2.922668882847949 -1.210351715822165 -0.6293306614807456
| 30> H -3.5526266447704193 -1.7257173017150127 0.9345981864605154
| 31> H -1.5375713729782419 -3.0184258097194965 0.16931709891031682
| 32> H -1.397012769984106 -2.3107917935688222 1.7884276720950865
| 33> H 4.985841186311725 -0.7660146422368186 0.12788616136244893
| 34> H 4.642409832232383 -1.0596932920652606 -1.5942292472974655
| 35> *
| 36>
| 37>                          ****END OF INPUT****

CARTESIAN COORDINATES (ANGSTROEM)
---------------------------------
  C      2.110694    2.781566   -0.678501
  O      0.915148    2.038480   -0.475934
  C      1.033156    0.696060   -0.234888
  C      2.184521   -0.070899   -0.339338
  C      2.163554   -1.430763   -0.110157
  C      1.011515   -2.106801    0.224581
  C     -0.174435   -1.370269    0.329735
  C     -0.168050    0.036684    0.123506
  C     -1.467797    0.826456    0.240034
  O     -1.899575    1.171276   -1.070900
  N     -2.522194    0.121202    0.980546
  C     -3.776107    0.868895    0.956163
  C     -2.703456   -1.230964    0.446639
  C     -1.452316   -2.073059    0.718359
  O      3.383726   -2.015700   -0.260160
  C      4.186846   -0.878244   -0.614012
  O      3.438342    0.349567   -0.674464
  H      2.587753    2.507316   -1.624387
  H      1.833805    3.838226   -0.748188
  H      2.795149    2.679093    0.169773
  H      1.032148   -3.177649    0.397456
  H     -1.257145    1.756331    0.783422
  H     -1.116836    1.561551   -1.497587
  H     -4.514575    0.388798    1.608229
  H     -4.210975    0.940967   -0.047148
  H     -3.631268    1.882878    1.345521
  H     -2.922669   -1.210352   -0.629331
  H     -3.552627   -1.725717    0.934598
  H     -1.537571   -3.018426    0.169317
  H     -1.397013   -2.310792    1.788428
  H      4.985841   -0.766015    0.127886
  H      4.642410   -1.059693   -1.594229

 Total Charge           Charge          ....    0
 Multiplicity           Mult            ....    1
 Number of Electrons    NEL             ....  126
 Basis Dimension        Dim             ....  313

ORBITAL ENERGIES
----------------

  NO   OCC          E(Eh)            E(eV)
   0   2.0000     -20.606410      -560.7289
   1   2.0000     -20.604918      -560.6883
   2   2.0000     -20.594314      -560.3998
   3   2.0000     -20.533967      -558.7577
   4   2.0000     -15.542157      -422.9236
   5   2.0000     -11.366643      -309.3021
   6   2.0000     -11.318468      -307.9912
   7   2.0000     -11.307298      -307.6872
   8   2.0000     -11.304861      -307.6209
   9   2.0000     -11.300712      -307.5080
  10   2.0000     -11.295304      -307.3609
  11   2.0000     -11.251435      -306.1671
  12   2.0000     -11.245832      -306.0146
  13   2.0000     -11.238858      -305.8249
  14   2.0000     -11.237679      -305.7928
  15   2.0000     -11.234237      -305.6991
  16   2.0000     -11.229479      -305.5697
  17   2.0000      -1.476063       -40.1657
  18   2.0000      -1.407355       -38.2961
  19   2.0000      -1.376241       -37.4494
  20   2.0000      -1.339002       -36.4361
  21   2.0000      -1.203161       -32.7397
  22   2.0000      -1.149617       -31.2827
  23   2.0000      -1.052249       -28.6331
  24   2.0000      -1.032977       -28.1087
  25   2.0000      -0.984390       -26.7866
  26   2.0000      -0.947485       -25.7824
  27   2.0000      -0.928345       -25.2615
  28   2.0000      -0.906576       -24.6692
  29   2.0000      -0.864513       -23.5246
  30   2.0000      -0.848029       -23.0760
  31   2.0000      -0.818270       -22.2663
  32   2.0000      -0.763936       -20.7878
  33   2.0000      -0.735392       -20.0110
  34   2.0000      -0.726194       -19.7608
  35   2.0000      -0.712068       -19.3764
  36   2.0000      -0.696936       -18.9646
  37   2.0000      -0.668305       -18.1855
  38   2.0000      -0.664012       -18.0687
  39   2.0000      -0.662361       -18.0238
  40   2.0000      -0.635529       -17.2936
  41   2.0000      -0.630726       -17.1629
  42   2.0000      -0.622528       -16.9399
  43   2.0000      -0.611246       -16.6328
  44   2.0000      -0.587395       -15.9838
  45   2.0000      -0.582636       -15.8543
  46   2.0000      -0.577786       -15.7224
  47   2.0000      -0.571955       -15.5637
  48   2.0000      -0.564705       -15.3664
  49   2.0000      -0.557781       -15.1780
  50   2.0000      -0.552039       -15.0218
  51   2.0000      -0.543884       -14.7998
  52   2.0000      -0.526994       -14.3402
  53   2.0000      -0.514017       -13.9871
  54   2.0000      -0.505777       -13.7629
  55   2.0000      -0.497154       -13.5282
  56   2.0000      -0.482507       -13.1297
  57   2.0000      -0.468345       -12.7443
  58   2.0000      -0.436434       -11.8760
  59   2.0000      -0.427615       -11.6360
  60   2.0000      -0.364326        -9.9138
  61   2.0000      -0.321004        -8.7350
  62   2.0000      -0.305651        -8.3172
  63   0.0000       0.133902         3.6437
  64   0.0000       0.142741         3.8842
  65   0.0000       0.180429         4.9097
  66   0.0000       0.187931         5.1139
  67   0.0000       0.199041         5.4162

MULLIKEN ATOMIC CHARGES
-----------------------
   0 C :    0.243268
   1 O :   -0.597526
   2 C :    0.295908
   3 C :    0.142705
   4 C :    0.303395
   5 C :   -0.123320
   6 C :   -0.125341
   7 C :   -0.255351
   8 C :    0.607475
   9 O :   -0.465322
  10 N :   -0.651963
  11 C :    0.173093
  12 C :    0.146623
  13 C :    0.118214
  14 O :   -0.521544
  15 C :    0.559064
  16 O :   -0.559371
  17 H :    0.045815
  18 H :    0.045077
  19 H :    0.044071
  20 H :    0.031240
  21 H :    0.026077
  22 H :    0.204670
  23 H :    0.024040
  24 H :    0.029033
  25 H :    0.025346
  26 H :    0.032174
  27 H :    0.025915
  28 H :    0.036639
  29 H :    0.051522
  30 H :    0.044043
  31 H :    0.044333
Sum of atomic charges:   -0.0000000

LOEWDIN ATOMIC CHARGES
----------------------
   0 C :    0.135595
   1 O :   -0.199547
   2 C :    0.079445
   3 C :   -0.008325
   4 C :    0.069558
   5 C :   -0.068415
   6 C :    0.000433
   7 C :   -0.087083
   8 C :    0.175079
   9 O :   -0.200672
  10 N :   -0.193160
  11 C :    0.058101
  12 C :    0.066044
  13 C :   -0.007593
  14 O :   -0.186319
  15 C :    0.287245
  16 O :   -0.199055
  17 H :    0.013086
  18 H :    0.018067
  19 H :    0.014219
  20 H :    0.033611
  21 H :    0.005141
  22 H :    0.082225
  23 H :    0.009491
  24 H :    0.003414
  25 H :    0.013194
  26 H :    0.001718
  27 H :    0.012649
  28 H :    0.023560
  29 H :    0.028975
  30 H :    0.009491
  31 H :    0.009828

  Mayer bond orders larger than 0.100000
B(  0-C ,  1-O ) :   0.8388 B(  0-C , 17-H ) :   0.9893 B(  0-C , 18-H ) :   0.9922
B(  0-C , 19-H ) :   0.9887 B(  1-O ,  2-C ) :   1.0109 B(  2-C ,  3-C ) :   1.3930
B(  2-C ,  7-C ) :   1.4292 B(  3-C ,  4-C ) :   1.3272 B(  3-C , 16-O ) :   0.9221
B(  4-C ,  5-C ) :   1.4318 B(  4-C , 14-O ) :   0.9617 B(  5-C ,  6-C ) :   1.3864
B(  5-C , 20-H ) :   1.0251 B(  6-C ,  7-C ) :   1.4899 B(  6-C , 13-C ) :   0.9803
B(  7-C ,  8-C ) :   0.9482 B(  8-C ,  9-O ) :   0.9056 B(  8-C , 10-N ) :   0.9693
B(  8-C , 21-H ) :   0.9636 B(  9-O , 22-H ) :   0.9645 B( 10-N , 11-C ) :   0.9392
B( 10-N , 12-C ) :   0.9216 B( 11-C , 23-H ) :   0.9912 B( 11-C , 24-H ) :   0.9818
B( 11-C , 25-H ) :   0.9886 B( 12-C , 13-C ) :   1.0606 B( 12-C , 26-H ) :   0.9642
B( 12-C , 27-H ) :   0.9784 B( 13-C , 28-H ) :   0.9700 B( 13-C , 29-H ) :   0.9495
B( 14-O , 15-C ) :   0.9028 B( 15-C , 16-O ) :   0.8922 B( 15-C , 30-H ) :   0.9839
B( 15-C , 31-H ) :   0.9841

FINAL SINGLE POINT ENERGY      -816.371298214051

DIPOLE MOMENT
-------------
                                X             Y             Z
Electronic contribution:     12.03730      -3.13646      -1.91726
Nuclear contribution   :    -10.99775       3.28654       1.79527
                        -----------------------------------------
Total Dipole Moment    :      1.03955       0.15009      -0.12199
                        -----------------------------------------
Magnitude (a.u.)       :      1.05739
Magnitude (Debye)      :      2.68767

Rotational constants in cm-1:     0.029467     0.011674     0.008715
Rotational constants in MHz :   883.389948   349.964358   261.265811

                             ****ORCA TERMINATED NORMALLY****
TOTAL RUN TIME: 0 days 0 hours 0 minutes 14 seconds 209 msec
