                         Program Version 5.0.3 -  RELEASE  -
|  1> !RHF def2-SVP TightSCF PAL16
|  2> *xyz 0 1
|  3> C 7.195879199945106 -0.9054701844267143 1.0427832250719125
|  4> C 6.055212948506173 -0.16005411180651083 1.7097079173214178
|  5> O 5.165594939281507 0.3751725580648477 0.7185802892420157
|  6> C 4.182897806340094 -0.4614242981212482 0.301538224977728
|  7> O 4.021760576284105 -1.6172233451711928 0.6696743657321547
|  8> N 3.400891869205937 0.17569846476836418 -0.6335801206403321
|  9> N 2.525128370555492 -0.6242477998627582 -1.4071666544737307
| 10> C 1.1676242825922218 -0.28292814927138443 -1.2127276037902794
| 11> C 0.711086868241979 1.0148094104852783 -1.371306789227778
| 12> C -0.6469171822462859 1.2898997029391774 -1.1992110051166696
| 13> C -1.5361297909271272 0.26694146074071934 -0.8918917022052114
| 14> N -2.8937618959995897 0.5478543868452952 -0.6716825704651135
| 15> C -3.5623249207562755 1.195185741945223 -1.8126564222019508
| 16> C -4.357754896725286 2.396012830678114 -1.3208261317152652
| 17> C -3.678318857982146 -0.5411041189818733 -0.03448778242963956
| 18> C -3.309337208457146 -0.7290185951534603 1.4584585105719639
| 19> C -4.515919001241761 -1.187675970690283 2.268619714373274
| 20> O -2.2991726894923836 -1.7256123339711498 1.6328032489444373
| 21> N -1.0504520413409788 -0.9817739571622783 -0.7494010901059871
| 22> N 0.2947969882627282 -1.262129600452734 -0.9196365326696352
| 23> H 7.719099094215918 -0.2547999554986665 0.33438868979654834
| 24> H 7.910776837909105 -1.265706201614808 1.7875118557922813
| 25> H 6.824423816881985 -1.763230044124905 0.47317254575433854
| 26> H 6.451939028301265 0.6897664098137407 2.274887667628273
| 27> H 5.5211209174368605 -0.7988386359250893 2.422315242299614
| 28> H 3.7968056810414463 0.9908912014653499 -1.0855514595462983
| 29> H 2.590135051308023 -1.61474267418161 -1.129385792586226
| 30> H 1.395096509022015 1.8161882746706852 -1.6234017100221851
| 31> H -0.9965461636046385 2.3131901527570102 -1.2841778198381224
| 32> H -2.862010655449349 1.5365525492722552 -2.5850694786174624
| 33> H -4.234002938219135 0.4846354953867627 -2.310954448919877
| 34> H -4.876704724484413 2.877127785555502 -2.155619767395268
| 35> H -5.10645202524599 2.103215483528606 -0.5772618745703181
| 36> H -3.6976467639441215 3.135829851762802 -0.8560892231867062
| 37> H -3.5728753419575527 -1.4783896190621044 -0.5962563881715879
| 38> H -4.7366150525716195 -0.25689056563320717 -0.08838545722637932
| 39> H -2.9322579449465827 0.20744545731464042 1.8847982458597046
| 40> H -4.23714764446697 -1.3399277525189817 3.316859797568279
| 41> H -5.327262597695988 -0.45509178406382694 2.228602335894527
| 42> H -4.890689411779338 -2.1486621440413014 1.8994853321166956
| 43> H -1.6099710357960706 -1.5614753762573177 0.9554861223986585
| 44> *
| 45>
| 46>                          ****END OF INPUT****

CARTESIAN COORDINATES (ANGSTROEM)
---------------------------------
  C      7.195879   -0.905470    1.042783
  C      6.055213   -0.160054    1.709708
  O      5.165595    0.375173    0.718580
  C      4.182898   -0.461424    0.301538
  O      4.021761   -1.617223    0.669674
  N      3.400892    0.175698   -0.633580
  N      2.525128   -0.624248   -1.407167
  C      1.167624   -0.282928   -1.212728
  C      0.711087    1.014809   -1.371307
  C     -0.646917    1.289900   -1.199211
  C     -1.536130    0.266941   -0.891892
  N     -2.893762    0.547854   -0.671683
  C     -3.562325    1.195186   -1.812656
  C     -4.357755    2.396013   -1.320826
  C     -3.678319   -0.541104   -0.034488
  C     -3.309337   -0.729019    1.458459
  C     -4.515919   -1.187676    2.268620
  O     -2.299173   -1.725612    1.632803
  N     -1.050452   -0.981774   -0.749401
  N      0.294797   -1.262130   -0.919637
  H      7.719099   -0.254800    0.334389
  H      7.910777   -1.265706    1.787512
  H      6.824424   -1.763230    0.473173
  H      6.451939    0.689766    2.274888
  H      5.521121   -0.798839    2.422315
  H      3.796806    0.990891   -1.085551
  H      2.590135   -1.614743   -1.129386
  H      1.395097    1.816188   -1.623402
  H     -0.996546    2.313190   -1.284178
  H     -2.862011    1.536553   -2.585069
  H     -4.234003    0.484635   -2.310954
  H     -4.876705    2.877128   -2.155620
  H     -5.106452    2.103215   -0.577262
  H     -3.697647    3.135830   -0.856089
  H     -3.572875   -1.478390   -0.596256
  H     -4.736615   -0.256891   -0.088385
  H     -2.932258    0.207445    1.884798
  H     -4.237148   -1.339928    3.316860
  H     -5.327263   -0.455092    2.228602
  H     -4.890689   -2.148662    1.899485
  H     -1.609971   -1.561475    0.955486

 Total Charge           Charge          ....    0
 Multiplicity           Mult            ....    1
 Number of Electrons    NEL             ....  152
 Basis Dimension        Dim             ....  385

ORBITAL ENERGIES
----------------

  NO   OCC          E(Eh)            E(eV)
   0   2.0000     -20.609719      -560.8190
   1   2.0000     -20.541162      -558.9534
   2   2.0000     -20.504384      -557.9527
   3   2.0000     -15.634261      -425.4299
   4   2.0000     -15.619520      -425.0287
   5   2.0000     -15.615326      -424.9146
   6   2.0000     -15.609916      -424.7674
   7   2.0000     -15.577482      -423.8848
   8   2.0000     -11.427276      -310.9520
   9   2.0000     -11.328948      -308.2763
  10   2.0000     -11.324324      -308.1505
  11   2.0000     -11.301474      -307.5287
  12   2.0000     -11.281762      -306.9924
  13   2.0000     -11.278173      -306.8947
  14   2.0000     -11.277320      -306.8715
  15   2.0000     -11.265369      -306.5463
  16   2.0000     -11.258828      -306.3683
  17   2.0000     -11.232291      -305.6462
  18   2.0000     -11.232180      -305.6432
  19   2.0000     -11.209022      -305.0130
  20   2.0000      -1.461834       -39.7785
  21   2.0000      -1.359477       -36.9932
  22   2.0000      -1.337625       -36.3986
  23   2.0000      -1.310460       -35.6594
  24   2.0000      -1.297546       -35.3080
  25   2.0000      -1.244418       -33.8623
  26   2.0000      -1.151009       -31.3206
  27   2.0000      -1.097625       -29.8679
  28   2.0000      -1.067471       -29.0474
  29   2.0000      -1.029021       -28.0011
  30   2.0000      -1.020705       -27.7748
  31   2.0000      -0.990516       -26.9533
  32   2.0000      -0.936261       -25.4770
  33   2.0000      -0.895579       -24.3699
  34   2.0000      -0.888303       -24.1719
  35   2.0000      -0.860619       -23.4186
  36   2.0000      -0.818182       -22.2639
  37   2.0000      -0.814745       -22.1703
  38   2.0000      -0.784448       -21.3459
  39   2.0000      -0.766618       -20.8607
  40   2.0000      -0.739056       -20.1107
  41   2.0000      -0.730543       -19.8791
  42   2.0000      -0.711064       -19.3490
  43   2.0000      -0.691770       -18.8240
  44   2.0000      -0.678898       -18.4738
  45   2.0000      -0.674816       -18.3627
  46   2.0000      -0.647501       -17.6194
  47   2.0000      -0.643049       -17.4983
  48   2.0000      -0.638122       -17.3642
  49   2.0000      -0.632610       -17.2142
  50   2.0000      -0.614107       -16.7107
  51   2.0000      -0.605528       -16.4773
  52   2.0000      -0.603064       -16.4102
  53   2.0000      -0.588890       -16.0245
  54   2.0000      -0.581868       -15.8334
  55   2.0000      -0.578629       -15.7453
  56   2.0000      -0.558895       -15.2083
  57   2.0000      -0.551155       -14.9977
  58   2.0000      -0.544361       -14.8128
  59   2.0000      -0.533599       -14.5200
  60   2.0000      -0.525583       -14.3018
  61   2.0000      -0.522459       -14.2168
  62   2.0000      -0.520489       -14.1632
  63   2.0000      -0.512693       -13.9511
  64   2.0000      -0.502039       -13.6612
  65   2.0000      -0.499501       -13.5921
  66   2.0000      -0.493294       -13.4232
  67   2.0000      -0.476192       -12.9578
  68   2.0000      -0.467203       -12.7132
  69   2.0000      -0.457047       -12.4369
  70   2.0000      -0.435661       -11.8549
  71   2.0000      -0.416914       -11.3448
  72   2.0000      -0.411250       -11.1907
  73   2.0000      -0.406614       -11.0645
  74   2.0000      -0.392692       -10.6857
  75   2.0000      -0.331238        -9.0134
  76   0.0000       0.066643         1.8134
  77   0.0000       0.127455         3.4682
  78   0.0000       0.157216         4.2781
  79   0.0000       0.169213         4.6045
  80   0.0000       0.183099         4.9824

MULLIKEN ATOMIC CHARGES
-----------------------
   0 C :   -0.086337
   1 C :    0.225008
   2 O :   -0.554163
   3 C :    0.681048
   4 O :   -0.457263
   5 N :   -0.308946
   6 N :   -0.214781
   7 C :    0.312468
   8 C :   -0.023675
   9 C :   -0.042610
  10 C :    0.383885
  11 N :   -0.649970
  12 C :    0.104780
  13 C :   -0.004779
  14 C :    0.200618
  15 C :    0.160118
  16 C :   -0.017766
  17 O :   -0.484583
  18 N :   -0.337130
  19 N :   -0.206762
  20 H :    0.039979
  21 H :    0.041762
  22 H :    0.057630
  23 H :    0.042712
  24 H :    0.066736
  25 H :    0.188305
  26 H :    0.190348
  27 H :    0.041332
  28 H :    0.054988
  29 H :    0.041033
  30 H :    0.036501
  31 H :    0.029188
  32 H :    0.031491
  33 H :    0.027410
  34 H :    0.057349
  35 H :    0.027686
  36 H :    0.017785
  37 H :    0.044663
  38 H :    0.016788
  39 H :    0.032902
  40 H :    0.234251
Sum of atomic charges:   -0.0000000

LOEWDIN ATOMIC CHARGES
----------------------
   0 C :   -0.047451
   1 C :    0.137159
   2 O :   -0.198307
   3 C :    0.232425
   4 O :   -0.314155
   5 N :   -0.026516
   6 N :   -0.033328
   7 C :    0.043274
   8 C :   -0.007366
   9 C :   -0.010817
  10 C :    0.076128
  11 N :   -0.163987
  12 C :    0.072449
  13 C :   -0.038807
  14 C :    0.067290
  15 C :    0.101617
  16 C :   -0.037537
  17 O :   -0.214588
  18 N :   -0.118137
  19 N :   -0.095596
  20 H :    0.020181
  21 H :    0.025415
  22 H :    0.026432
  23 H :    0.017238
  24 H :    0.022219
  25 H :    0.084331
  26 H :    0.087715
  27 H :    0.033736
  28 H :    0.036990
  29 H :    0.014886
  30 H :    0.011116
  31 H :    0.016237
  32 H :    0.017432
  33 H :    0.015524
  34 H :    0.018053
  35 H :    0.013988
  36 H :   -0.000373
  37 H :    0.024252
  38 H :    0.010571
  39 H :    0.019890
  40 H :    0.060417

  Mayer bond orders larger than 0.100000
B(  0-C ,  1-C ) :   1.0527 B(  0-C , 20-H ) :   0.9803 B(  0-C , 21-H ) :   0.9827
B(  0-C , 22-H ) :   0.9834 B(  1-C ,  2-O ) :   0.7927 B(  1-C , 23-H ) :   0.9827
B(  1-C , 24-H ) :   0.9781 B(  2-O ,  3-C ) :   1.0851 B(  3-C ,  4-O ) :   1.9016
B(  3-C ,  5-N ) :   1.1036 B(  5-N ,  6-N ) :   0.9745 B(  5-N , 25-H ) :   0.9315
B(  6-N ,  7-C ) :   1.0380 B(  6-N , 26-H ) :   0.9262 B(  7-C ,  8-C ) :   1.2575
B(  7-C , 19-N ) :   1.5539 B(  8-C ,  9-C ) :   1.5725 B(  8-C , 27-H ) :   0.9877
B(  9-C , 10-C ) :   1.2862 B(  9-C , 28-H ) :   0.9897 B( 10-C , 11-N ) :   1.0288
B( 10-C , 18-N ) :   1.4514 B( 11-N , 12-C ) :   0.8834 B( 11-N , 14-C ) :   0.8823
B( 12-C , 13-C ) :   1.0458 B( 12-C , 29-H ) :   0.9807 B( 12-C , 30-H ) :   0.9746
B( 13-C , 31-H ) :   0.9844 B( 13-C , 32-H ) :   0.9818 B( 13-C , 33-H ) :   0.9819
B( 14-C , 15-C ) :   0.9946 B( 14-C , 34-H ) :   0.9564 B( 14-C , 35-H ) :   0.9784
B( 15-C , 16-C ) :   1.0488 B( 15-C , 17-O ) :   0.9536 B( 15-C , 36-H ) :   0.9718
B( 16-C , 37-H ) :   0.9841 B( 16-C , 38-H ) :   0.9792 B( 16-C , 39-H ) :   0.9782
B( 17-O , 40-H ) :   0.9400 B( 18-N , 19-N ) :   1.2067

FINAL SINGLE POINT ENERGY      -962.668835589034

DIPOLE MOMENT
-------------
                                X             Y             Z
Electronic contribution:     14.39202      -3.94232      -5.74207
Nuclear contribution   :    -13.84189       6.55758       4.67176
                        -----------------------------------------
Total Dipole Moment    :      0.55013       2.61526      -1.07031
                        -----------------------------------------
Magnitude (a.u.)       :      2.87885
Magnitude (Debye)      :      7.31746

Rotational constants in cm-1:     0.022400     0.004177     0.003780
Rotational constants in MHz :   671.540898   125.217539   113.307720

                             ****ORCA TERMINATED NORMALLY****
TOTAL RUN TIME: 0 days 0 hours 0 minutes 18 seconds 93 msec
