                         Program Version 5.0.3 -  RELEASE  -
|  1> !RHF def2-SVP TightSCF PAL16
|  2> *xyz 0 1
|  3> C 1.4568830437683844 -0.8988522730850566 -1.6085057793018482
|  4> C 1.0514687138469079 -0.07079565867166587 -0.37405326034296615
|  5> O 0.9735639188748223 1.30441857233754 -0.7638856053924589
|  6> C 2.102243404248521 -0.24153636969583642 0.7505902703958749
|  7> C 3.485010606275609 0.18832820437563286 0.3416013076181276
|  8> O 3.766553224206182 1.0404603501522698 -0.4858229287980228
|  9> O 4.4492890490780175 -0.44881248116385447 1.0316642301885735
| 10> C -0.37033958440685827 -0.49407223422739693 0.14544678385858956
| 11> C -1.4126927850277724 -0.619391501656702 -0.9933052352555858
| 12> C -2.8377324485504407 -0.6768968517798036 -0.4556349451131382
| 13> C -3.221731613562341 0.6095253400057389 0.27054058637850015
| 14> C -2.0185802138294235 1.3616705081250773 0.8326156372069821
| 15> C -0.9109217821511456 0.4144575262894071 1.2839591244584194
| 16> H 2.4583025883303953 -0.6379061761715344 -1.965364276331479
| 17> H 0.7973440865869967 -0.7004955569680958 -2.4599564856416007
| 18> H 1.442003203604009 -1.9717339415005128 -1.3909040049214054
| 19> H 1.861791621764287 1.5818273711955395 -1.068775677840229
| 20> H 2.1391709675167268 -1.2943350784679601 1.0552556184989377
| 21> H 1.860385774678295 0.3643017350641242 1.6284953850112047
| 22> H 5.286823099130501 -0.0595864665173758 0.7023572066309934
| 23> H -0.2576805169800727 -1.4999426947981953 0.5767178005957316
| 24> H -1.2196872869650695 -1.5328112455174794 -1.5682668224092216
| 25> H -1.3269314478836116 0.22217224064994645 -1.691920827520963
| 26> H -2.9286240394748515 -1.5262164012674038 0.23324631271852417
| 27> H -3.5445645448343885 -0.8625252571824845 -1.2723717392899747
| 28> H -3.920618674355373 0.3638756391829322 1.0792939889196522
| 29> H -3.7656579194526465 1.2746741126910452 -0.4110149678508139
| 30> H -2.3411006417784246 1.9903193947027915 1.670619352118002
| 31> H -1.6238647242836712 2.043611952425857 0.06940101535855249
| 32> H -1.3110536989234707 -0.22939860475850732 2.0787338775071995
| 33> H -0.11905137945023257 1.0056658462320025 1.750904828566796
| 34> *
| 35>
| 36>                          ****END OF INPUT****

CARTESIAN COORDINATES (ANGSTROEM)
---------------------------------
  C      1.456883   -0.898852   -1.608506
  C      1.051469   -0.070796   -0.374053
  O      0.973564    1.304419   -0.763886
  C      2.102243   -0.241536    0.750590
  C      3.485011    0.188328    0.341601
  O      3.766553    1.040460   -0.485823
  O      4.449289   -0.448812    1.031664
  C     -0.370340   -0.494072    0.145447
  C     -1.412693   -0.619392   -0.993305
  C     -2.837732   -0.676897   -0.455635
  C     -3.221732    0.609525    0.270541
  C     -2.018580    1.361671    0.832616
  C     -0.910922    0.414458    1.283959
  H      2.458303   -0.637906   -1.965364
  H      0.797344   -0.700496   -2.459956
  H      1.442003   -1.971734   -1.390904
  H      1.861792    1.581827   -1.068776
  H      2.139171   -1.294335    1.055256
  H      1.860386    0.364302    1.628495
  H      5.286823   -0.059586    0.702357
  H     -0.257681   -1.499943    0.576718
  H     -1.219687   -1.532811   -1.568267
  H     -1.326931    0.222172   -1.691921
  H     -2.928624   -1.526216    0.233246
  H     -3.544565   -0.862525   -1.272372
  H     -3.920619    0.363876    1.079294
  H     -3.765658    1.274674   -0.411015
  H     -2.341101    1.990319    1.670619
  H     -1.623865    2.043612    0.069401
  H     -1.311054   -0.229399    2.078734
  H     -0.119051    1.005666    1.750905

 Total Charge           Charge          ....    0
 Multiplicity           Mult            ....    1
 Number of Electrons    NEL             ....  102
 Basis Dimension        Dim             ....  272

ORBITAL ENERGIES
----------------

  NO   OCC          E(Eh)            E(eV)
   0   2.0000     -20.620458      -561.1112
   1   2.0000     -20.558975      -559.4382
   2   2.0000     -20.534336      -558.7677
   3   2.0000     -11.405223      -310.3519
   4   2.0000     -11.296478      -307.3928
   5   2.0000     -11.254530      -306.2513
   6   2.0000     -11.231192      -305.6163
   7   2.0000     -11.222619      -305.3830
   8   2.0000     -11.216587      -305.2189
   9   2.0000     -11.215955      -305.2016
  10   2.0000     -11.214243      -305.1551
  11   2.0000     -11.209685      -305.0310
  12   2.0000     -11.207821      -304.9803
  13   2.0000      -1.463385       -39.8207
  14   2.0000      -1.354397       -36.8550
  15   2.0000      -1.327181       -36.1144
  16   2.0000      -1.108970       -30.1766
  17   2.0000      -1.064577       -28.9686
  18   2.0000      -0.999125       -27.1876
  19   2.0000      -0.988142       -26.8887
  20   2.0000      -0.957241       -26.0479
  21   2.0000      -0.864421       -23.5221
  22   2.0000      -0.829759       -22.5789
  23   2.0000      -0.816007       -22.2047
  24   2.0000      -0.767761       -20.8918
  25   2.0000      -0.717680       -19.5291
  26   2.0000      -0.708886       -19.2898
  27   2.0000      -0.698250       -19.0003
  28   2.0000      -0.681138       -18.5347
  29   2.0000      -0.655484       -17.8366
  30   2.0000      -0.643325       -17.5058
  31   2.0000      -0.637984       -17.3604
  32   2.0000      -0.613029       -16.6814
  33   2.0000      -0.600651       -16.3445
  34   2.0000      -0.585994       -15.9457
  35   2.0000      -0.578632       -15.7454
  36   2.0000      -0.561288       -15.2734
  37   2.0000      -0.550135       -14.9699
  38   2.0000      -0.530990       -14.4490
  39   2.0000      -0.519896       -14.1471
  40   2.0000      -0.510814       -13.9000
  41   2.0000      -0.507494       -13.8096
  42   2.0000      -0.497680       -13.5426
  43   2.0000      -0.492433       -13.3998
  44   2.0000      -0.490699       -13.3526
  45   2.0000      -0.480679       -13.0799
  46   2.0000      -0.458477       -12.4758
  47   2.0000      -0.439971       -11.9722
  48   2.0000      -0.429512       -11.6876
  49   2.0000      -0.419680       -11.4201
  50   2.0000      -0.415851       -11.3159
  51   0.0000       0.159693         4.3455
  52   0.0000       0.162681         4.4268
  53   0.0000       0.181199         4.9307
  54   0.0000       0.190355         5.1798
  55   0.0000       0.201717         5.4890

MULLIKEN ATOMIC CHARGES
-----------------------
   0 C :    0.033180
   1 C :   -0.025646
   2 O :   -0.476913
   3 C :    0.007385
   4 C :    0.469314
   5 O :   -0.448646
   6 O :   -0.343360
   7 C :   -0.136243
   8 C :   -0.024272
   9 C :   -0.026728
  10 C :   -0.034566
  11 C :   -0.047313
  12 C :    0.010221
  13 H :    0.041473
  14 H :    0.052269
  15 H :    0.023627
  16 H :    0.225041
  17 H :    0.068023
  18 H :    0.086971
  19 H :    0.226241
  20 H :    0.021989
  21 H :    0.031235
  22 H :    0.047784
  23 H :    0.017503
  24 H :    0.030041
  25 H :    0.022413
  26 H :    0.026859
  27 H :    0.025852
  28 H :    0.046575
  29 H :    0.019085
  30 H :    0.030605
Sum of atomic charges:    0.0000000

LOEWDIN ATOMIC CHARGES
----------------------
   0 C :   -0.038927
   1 C :    0.080496
   2 O :   -0.197366
   3 C :   -0.042806
   4 C :    0.224608
   5 O :   -0.291104
   6 O :   -0.100034
   7 C :   -0.020966
   8 C :   -0.015871
   9 C :   -0.021361
  10 C :   -0.023918
  11 C :   -0.021328
  12 C :   -0.013810
  13 H :    0.016850
  14 H :    0.026429
  15 H :    0.015184
  16 H :    0.080378
  17 H :    0.037951
  18 H :    0.047582
  19 H :    0.115722
  20 H :    0.010363
  21 H :    0.011789
  22 H :    0.017688
  23 H :    0.008512
  24 H :    0.015464
  25 H :    0.010147
  26 H :    0.012943
  27 H :    0.013635
  28 H :    0.018767
  29 H :    0.009578
  30 H :    0.013405

  Mayer bond orders larger than 0.100000
B(  0-C ,  1-C ) :   1.0138 B(  0-C , 13-H ) :   0.9800 B(  0-C , 14-H ) :   0.9764
B(  0-C , 15-H ) :   0.9755 B(  1-C ,  2-O ) :   0.8923 B(  1-C ,  3-C ) :   0.9803
B(  1-C ,  7-C ) :   0.9828 B(  2-O , 16-H ) :   0.9459 B(  3-C ,  4-C ) :   0.9753
B(  3-C , 17-H ) :   0.9657 B(  3-C , 18-H ) :   0.9388 B(  4-C ,  5-O ) :   1.9020
B(  4-C ,  6-O ) :   1.1611 B(  6-O , 19-H ) :   0.9405 B(  7-C ,  8-C ) :   1.0159
B(  7-C , 12-C ) :   0.9824 B(  7-C , 20-H ) :   0.9555 B(  8-C ,  9-C ) :   1.0697
B(  8-C , 21-H ) :   0.9685 B(  8-C , 22-H ) :   0.9619 B(  9-C , 10-C ) :   1.0182
B(  9-C , 23-H ) :   0.9678 B(  9-C , 24-H ) :   0.9771 B( 10-C , 11-C ) :   1.0343
B( 10-C , 25-H ) :   0.9773 B( 10-C , 26-H ) :   0.9758 B( 11-C , 12-C ) :   1.0597
B( 11-C , 27-H ) :   0.9761 B( 11-C , 28-H ) :   0.9631 B( 12-C , 29-H ) :   0.9710
B( 12-C , 30-H ) :   0.9725

FINAL SINGLE POINT ENERGY      -613.316237409807

DIPOLE MOMENT
-------------
                                X             Y             Z
Electronic contribution:     16.23719       2.72512       1.12177
Nuclear contribution   :    -15.82061      -3.50594      -0.72972
                        -----------------------------------------
Total Dipole Moment    :      0.41658      -0.78082       0.39205
                        -----------------------------------------
Magnitude (a.u.)       :      0.96795
Magnitude (Debye)      :      2.46033

Rotational constants in cm-1:     0.061061     0.013371     0.012760
Rotational constants in MHz :  1830.577280   400.840719   382.541951

                             ****ORCA TERMINATED NORMALLY****
TOTAL RUN TIME: 0 days 0 hours 0 minutes 10 seconds 566 msec
