                         Program Version 5.0.3 -  RELEASE  -
|  1> !RHF def2-SVP TightSCF PAL16
|  2> *xyz 0 1
|  3> C -5.107430366852654 -0.8670599593712864 -0.8672420514368704
|  4> C -3.6096522199466166 -0.7881893660917386 -1.0301944590621297
|  5> O -3.0809396110212317 -1.0641446419416805 -2.1008291629409266
|  6> N -2.976339199599999 -0.41056515863423 0.14026056466032105
|  7> C -1.5924148230507011 -0.24588992797157216 0.35283260396815613
|  8> C -0.6195404234673292 -0.45709792465374294 -0.6244379196345489
|  9> C 0.7398932295138975 -0.269908275764318 -0.33526218510678674
| 10> C 1.1398980937793335 0.14019773509253844 0.933841541799388
| 11> O 2.4258641596740462 0.3518307403300943 1.3409641281954685
| 12> C 3.4218498763631775 0.5653073522545453 0.328934205813713
| 13> O 3.8220157907063754 -0.7012757483784938 -0.21803177057113374
| 14> C 4.624979619893088 1.3704817496539439 0.9234266559654609
| 15> Cl 5.840996308376066 1.7179048456862223 -0.35568499761919353
| 16> Cl 4.084201461443916 2.9347329485804914 1.6173095391729126
| 17> Cl 5.441929534302159 0.4165565109710232 2.2131055236576787
| 18> C 0.17199064692722663 0.33665959954293134 1.9184501183888292
| 19> C -1.183735610806859 0.14993859941641954 1.6308866194734684
| 20> H -5.474487040052434 -0.055853538091969246 -0.23188652338947155
| 21> H -5.585042237200965 -0.7725511543707323 -1.846773377458587
| 22> H -5.373527343040255 -1.8307691181143761 -0.4252545709235923
| 23> H -3.570132802889469 -0.23269957409413344 0.9402976769237458
| 24> H -0.880347361553426 -0.7788426714097347 -1.6282667393092367
| 25> H 1.4567290909898651 -0.4761556288581081 -1.1249655727080838
| 26> H 2.998691200818018 1.1619079599535083 -0.49050781360957424
| 27> H 4.321919856526569 -1.1560136641252257 0.48394591756514405
| 28> H 0.4709810142564214 0.6427518329874812 2.9181823565802634
| 29> H -1.9083508440871988 0.3187464774022846 2.4228776209568483
| 30> *
| 31>
| 32>                          ****END OF INPUT****

CARTESIAN COORDINATES (ANGSTROEM)
---------------------------------
  C     -5.107430   -0.867060   -0.867242
  C     -3.609652   -0.788189   -1.030194
  O     -3.080940   -1.064145   -2.100829
  N     -2.976339   -0.410565    0.140261
  C     -1.592415   -0.245890    0.352833
  C     -0.619540   -0.457098   -0.624438
  C      0.739893   -0.269908   -0.335262
  C      1.139898    0.140198    0.933842
  O      2.425864    0.351831    1.340964
  C      3.421850    0.565307    0.328934
  O      3.822016   -0.701276   -0.218032
  C      4.624980    1.370482    0.923427
  Cl     5.840996    1.717905   -0.355685
  Cl     4.084201    2.934733    1.617310
  Cl     5.441930    0.416557    2.213106
  C      0.171991    0.336660    1.918450
  C     -1.183736    0.149939    1.630887
  H     -5.474487   -0.055854   -0.231887
  H     -5.585042   -0.772551   -1.846773
  H     -5.373527   -1.830769   -0.425255
  H     -3.570133   -0.232700    0.940298
  H     -0.880347   -0.778843   -1.628267
  H      1.456729   -0.476156   -1.124966
  H      2.998691    1.161908   -0.490508
  H      4.321920   -1.156014    0.483946
  H      0.470981    0.642752    2.918182
  H     -1.908351    0.318746    2.422878

 Total Charge           Charge          ....    0
 Multiplicity           Mult            ....    1
 Number of Electrons    NEL             ....  152
 Basis Dimension        Dim             ....  300

ORBITAL ENERGIES
----------------

  NO   OCC          E(Eh)            E(eV)
   0   2.0000    -104.828267     -2852.5222
   1   2.0000    -104.825540     -2852.4480
   2   2.0000    -104.825018     -2852.4337
   3   2.0000     -20.600901      -560.5790
   4   2.0000     -20.591600      -560.3259
   5   2.0000     -20.526757      -558.5615
   6   2.0000     -15.610577      -424.7854
   7   2.0000     -11.445148      -311.4383
   8   2.0000     -11.401136      -310.2407
   9   2.0000     -11.368570      -309.3545
  10   2.0000     -11.307871      -307.7028
  11   2.0000     -11.291647      -307.2613
  12   2.0000     -11.251864      -306.1788
  13   2.0000     -11.249797      -306.1225
  14   2.0000     -11.246162      -306.0236
  15   2.0000     -11.245214      -305.9978
  16   2.0000     -11.240505      -305.8697
  17   2.0000     -10.591566      -288.2112
  18   2.0000     -10.588799      -288.1359
  19   2.0000     -10.588268      -288.1214
  20   2.0000      -8.066451      -219.4993
  21   2.0000      -8.063718      -219.4249
  22   2.0000      -8.063204      -219.4109
  23   2.0000      -8.062756      -219.3987
  24   2.0000      -8.062585      -219.3941
  25   2.0000      -8.059854      -219.3198
  26   2.0000      -8.059792      -219.3181
  27   2.0000      -8.059335      -219.3056
  28   2.0000      -8.059251      -219.3034
  29   2.0000      -1.436691       -39.0943
  30   2.0000      -1.371858       -37.3301
  31   2.0000      -1.356187       -36.9037
  32   2.0000      -1.249722       -34.0067
  33   2.0000      -1.238659       -33.7056
  34   2.0000      -1.140186       -31.0260
  35   2.0000      -1.113992       -30.3133
  36   2.0000      -1.110334       -30.2137
  37   2.0000      -1.035954       -28.1898
  38   2.0000      -1.017830       -27.6966
  39   2.0000      -0.995676       -27.0937
  40   2.0000      -0.957098       -26.0440
  41   2.0000      -0.864303       -23.5189
  42   2.0000      -0.847308       -23.0564
  43   2.0000      -0.816193       -22.2098
  44   2.0000      -0.782699       -21.2983
  45   2.0000      -0.757420       -20.6104
  46   2.0000      -0.733966       -19.9722
  47   2.0000      -0.709884       -19.3169
  48   2.0000      -0.693980       -18.8842
  49   2.0000      -0.680894       -18.5281
  50   2.0000      -0.657340       -17.8871
  51   2.0000      -0.633930       -17.2501
  52   2.0000      -0.626834       -17.0570
  53   2.0000      -0.622883       -16.9495
  54   2.0000      -0.619763       -16.8646
  55   2.0000      -0.612044       -16.6546
  56   2.0000      -0.599055       -16.3011
  57   2.0000      -0.592696       -16.1281
  58   2.0000      -0.577324       -15.7098
  59   2.0000      -0.568956       -15.4821
  60   2.0000      -0.556765       -15.1504
  61   2.0000      -0.553806       -15.0698
  62   2.0000      -0.543217       -14.7817
  63   2.0000      -0.528279       -14.3752
  64   2.0000      -0.505565       -13.7571
  65   2.0000      -0.502658       -13.6780
  66   2.0000      -0.498812       -13.5734
  67   2.0000      -0.492017       -13.3885
  68   2.0000      -0.474594       -12.9143
  69   2.0000      -0.464117       -12.6293
  70   2.0000      -0.459983       -12.5168
  71   2.0000      -0.450960       -12.2712
  72   2.0000      -0.436685       -11.8828
  73   2.0000      -0.429148       -11.6777
  74   2.0000      -0.349225        -9.5029
  75   2.0000      -0.304097        -8.2749
  76   0.0000       0.117209         3.1894
  77   0.0000       0.131356         3.5744
  78   0.0000       0.147057         4.0016
  79   0.0000       0.155095         4.2204
  80   0.0000       0.170495         4.6394

MULLIKEN ATOMIC CHARGES
-----------------------
   0 C :   -0.053185
   1 C :    0.375741
   2 O :   -0.438219
   3 N :   -0.391346
   4 C :    0.172931
   5 C :   -0.055415
   6 C :   -0.103411
   7 C :    0.287068
   8 O :   -0.554493
   9 C :    0.622192
  10 O :   -0.441910
  11 C :    0.035852
  12 Cl:   -0.058183
  13 Cl:   -0.060623
  14 Cl:   -0.084617
  15 C :   -0.056440
  16 C :   -0.057108
  17 H :    0.042630
  18 H :    0.075901
  19 H :    0.074905
  20 H :    0.159165
  21 H :    0.085784
  22 H :    0.068536
  23 H :    0.067098
  24 H :    0.210659
  25 H :    0.050193
  26 H :    0.026296
Sum of atomic charges:   -0.0000000

LOEWDIN ATOMIC CHARGES
----------------------
   0 C :   -0.052139
   1 C :    0.187435
   2 O :   -0.296403
   3 N :   -0.062012
   4 C :    0.036375
   5 C :   -0.023850
   6 C :   -0.050189
   7 C :    0.067402
   8 O :   -0.198816
   9 C :    0.190704
  10 O :   -0.175731
  11 C :   -0.222942
  12 Cl:    0.078898
  13 Cl:    0.082406
  14 Cl:    0.073672
  15 C :   -0.029275
  16 C :   -0.042855
  17 H :    0.023757
  18 H :    0.042740
  19 H :    0.042114
  20 H :    0.086559
  21 H :    0.043058
  22 H :    0.036652
  23 H :    0.021970
  24 H :    0.080534
  25 H :    0.035900
  26 H :    0.024034

  Mayer bond orders larger than 0.100000
B(  0-C ,  1-C ) :   0.9900 B(  0-C , 17-H ) :   0.9832 B(  0-C , 18-H ) :   0.9803
B(  0-C , 19-H ) :   0.9681 B(  1-C ,  2-O ) :   1.9334 B(  1-C ,  3-N ) :   1.0915
B(  3-N ,  4-C ) :   0.9744 B(  3-N , 20-H ) :   0.9379 B(  4-C ,  5-C ) :   1.4229
B(  4-C , 16-C ) :   1.3621 B(  5-C ,  6-C ) :   1.3844 B(  5-C , 21-H ) :   0.9954
B(  6-C ,  7-C ) :   1.3736 B(  6-C , 22-H ) :   0.9999 B(  7-C ,  8-O ) :   0.9312
B(  7-C , 15-C ) :   1.4096 B(  8-O ,  9-C ) :   0.9180 B(  9-C , 10-O ) :   0.9778
B(  9-C , 11-C ) :   0.8616 B(  9-C , 23-H ) :   0.9561 B( 10-O , 24-H ) :   0.9503
B( 11-C , 12-Cl) :   1.0293 B( 11-C , 13-Cl) :   1.0240 B( 11-C , 14-Cl) :   0.9945
B( 15-C , 16-C ) :   1.4600 B( 15-C , 25-H ) :   1.0008 B( 16-C , 26-H ) :   0.9994

FINAL SINGLE POINT ENERGY     -2041.077523825812

DIPOLE MOMENT
-------------
                                X             Y             Z
Electronic contribution:     41.57490      12.70771       7.60539
Nuclear contribution   :    -42.64237     -12.47778      -6.42651
                        -----------------------------------------
Total Dipole Moment    :     -1.06748       0.22992       1.17887
                        -----------------------------------------
Magnitude (a.u.)       :      1.60690
Magnitude (Debye)      :      4.08440

Rotational constants in cm-1:     0.031012     0.004036     0.003900
Rotational constants in MHz :   929.704182   121.009412   116.909077

                             ****ORCA TERMINATED NORMALLY****
TOTAL RUN TIME: 0 days 0 hours 0 minutes 10 seconds 473 msec
