                         Program Version 5.0.3 -  RELEASE  -
|  1> !RHF def2-SVP TightSCF PAL16
|  2> *xyz 0 1
|  3> C 7.241482467352226 1.3700681666110077 -0.5750697887156989
|  4> C 6.51058613337298 0.9809768177331698 -1.6955134548917634
|  5> C 5.5893613278541485 -0.06343771096097689 -1.6018209258889302
|  6> C 5.392648693249424 -0.7324362937344603 -0.38438315002263185
|  7> C 4.388501584510029 -1.8506616738665962 -0.2792244843976011
|  8> N 3.109208165851083 -1.3717883705792078 0.2135318573012487
|  9> C 2.6704772882668517 -1.4535628014189164 1.5048238037980868
| 10> N 1.4522662832612585 -0.9778830944369878 1.630137454992308
| 11> C 1.0881372597779297 -0.5717968343797107 0.36590652148812486
| 12> C -0.2876117936497254 0.07593959770039635 -0.006345567461126849
| 13> N -1.2643873391070155 0.3080003223321654 0.8465860471625847
| 14> C -2.2362301860310443 0.8615782621941933 0.05168966276010383
| 15> C -3.5639261473830435 1.3052273722862837 0.5870333897937314
| 16> N -4.546997698386516 0.19849114802109918 0.6489647975463951
| 17> C -4.883488759265357 -0.3050648124470267 -0.6995628787191054
| 18> C -6.200150609291805 -1.0862569270204196 -0.7837903520387633
| 19> S -7.649892057619127 -0.009661561234132164 -0.5067499890926273
| 20> C -6.898837053890791 1.1807755448003843 0.6554179429929905
| 21> C -5.731516715656716 0.5745790484583946 1.4420293064210745
| 22> N -1.8947246968458396 1.0046624648790867 -1.2373850555960686
| 23> O -0.6049508610937108 0.47325272587811357 -1.2817591988204955
| 24> C 2.1045145090251793 -0.8178067238713688 -0.5329396445238507
| 25> C 6.131392243170437 -0.3279231581101632 0.7378093669143981
| 26> C 7.051588245949081 0.7170874403033697 0.6408994632932751
| 27> H 7.956351267049251 2.185696332983775 -0.6483081311636709
| 28> H 6.656037410981889 1.4947079498784537 -2.642572768478661
| 29> H 5.0249987000185135 -0.3475967063043812 -2.487500286142515
| 30> H 4.215215812331535 -2.323022226275342 -1.2534194645125258
| 31> H 4.74794749050797 -2.6344621709249303 0.3979513771714969
| 32> H 3.2692860800701427 -1.8637524147035864 2.307930724986091
| 33> H -3.3799824565400116 1.6887494740749265 1.5990355593618482
| 34> H -3.9532717315580004 2.144490428846067 -0.0032163224751985057
| 35> H -4.920616969495259 0.516293057518982 -1.4286105664927746
| 36> H -4.079847497760544 -0.9780465685508971 -1.0221212797899208
| 37> H -6.2179267862095156 -1.9036952859730145 -0.05482647058905296
| 38> H -6.303092700595153 -1.5341268096999443 -1.7774772584549745
| 39> H -7.6816951571059935 1.5070679689356816 1.347641113574474
| 40> H -6.572664173036549 2.0626330109127284 0.093904147212274
| 41> H -5.449627629000819 1.2652575368483447 2.247074573975051
| 42> H -6.08329582421591 -0.32465996768667876 1.9656487754619874
| 43> H 2.19213688736734 -0.643648843737869 -1.5960806865510793
| 44> H 5.994456677892014 -0.8197441346648021 1.698556796079837
| 45> H 7.618140315880223 1.0255004193843615 1.516105042531866
| 46> *
| 47>
| 48>                          ****END OF INPUT****

CARTESIAN COORDINATES (ANGSTROEM)
---------------------------------
  C      7.241482    1.370068   -0.575070
  C      6.510586    0.980977   -1.695513
  C      5.589361   -0.063438   -1.601821
  C      5.392649   -0.732436   -0.384383
  C      4.388502   -1.850662   -0.279224
  N      3.109208   -1.371788    0.213532
  C      2.670477   -1.453563    1.504824
  N      1.452266   -0.977883    1.630137
  C      1.088137   -0.571797    0.365907
  C     -0.287612    0.075940   -0.006346
  N     -1.264387    0.308000    0.846586
  C     -2.236230    0.861578    0.051690
  C     -3.563926    1.305227    0.587033
  N     -4.546998    0.198491    0.648965
  C     -4.883489   -0.305065   -0.699563
  C     -6.200151   -1.086257   -0.783790
  S     -7.649892   -0.009662   -0.506750
  C     -6.898837    1.180776    0.655418
  C     -5.731517    0.574579    1.442029
  N     -1.894725    1.004662   -1.237385
  O     -0.604951    0.473253   -1.281759
  C      2.104515   -0.817807   -0.532940
  C      6.131392   -0.327923    0.737809
  C      7.051588    0.717087    0.640899
  H      7.956351    2.185696   -0.648308
  H      6.656037    1.494708   -2.642573
  H      5.024999   -0.347597   -2.487500
  H      4.215216   -2.323022   -1.253419
  H      4.747947   -2.634462    0.397951
  H      3.269286   -1.863752    2.307931
  H     -3.379982    1.688749    1.599036
  H     -3.953272    2.144490   -0.003216
  H     -4.920617    0.516293   -1.428611
  H     -4.079847   -0.978047   -1.022121
  H     -6.217927   -1.903695   -0.054826
  H     -6.303093   -1.534127   -1.777477
  H     -7.681695    1.507068    1.347641
  H     -6.572664    2.062633    0.093904
  H     -5.449628    1.265258    2.247075
  H     -6.083296   -0.324660    1.965649
  H      2.192137   -0.643649   -1.596081
  H      5.994457   -0.819744    1.698557
  H      7.618140    1.025500    1.516105

 Total Charge           Charge          ....    0
 Multiplicity           Mult            ....    1
 Number of Electrons    NEL             ....  180
 Basis Dimension        Dim             ....  435

ORBITAL ENERGIES
----------------

  NO   OCC          E(Eh)            E(eV)
   0   2.0000     -91.893961     -2500.5618
   1   2.0000     -20.647166      -561.8379
   2   2.0000     -15.643245      -425.6743
   3   2.0000     -15.618557      -425.0025
   4   2.0000     -15.564891      -423.5422
   5   2.0000     -15.562729      -423.4834
   6   2.0000     -15.552692      -423.2103
   7   2.0000     -11.372864      -309.4714
   8   2.0000     -11.315829      -307.9193
   9   2.0000     -11.313049      -307.8437
  10   2.0000     -11.311963      -307.8142
  11   2.0000     -11.293505      -307.3119
  12   2.0000     -11.288930      -307.1874
  13   2.0000     -11.272304      -306.7350
  14   2.0000     -11.267640      -306.6081
  15   2.0000     -11.262201      -306.4601
  16   2.0000     -11.261114      -306.4305
  17   2.0000     -11.260972      -306.4266
  18   2.0000     -11.258185      -306.3508
  19   2.0000     -11.257825      -306.3410
  20   2.0000     -11.256944      -306.3170
  21   2.0000     -11.255727      -306.2839
  22   2.0000     -11.255382      -306.2745
  23   2.0000     -11.254483      -306.2501
  24   2.0000      -8.930507      -243.0114
  25   2.0000      -6.618421      -180.0964
  26   2.0000      -6.616985      -180.0573
  27   2.0000      -6.614689      -179.9949
  28   2.0000      -1.490735       -40.5650
  29   2.0000      -1.361131       -37.0383
  30   2.0000      -1.238835       -33.7104
  31   2.0000      -1.216188       -33.0942
  32   2.0000      -1.203155       -32.7395
  33   2.0000      -1.160677       -31.5836
  34   2.0000      -1.133900       -30.8550
  35   2.0000      -1.062344       -28.9078
  36   2.0000      -1.059583       -28.8327
  37   2.0000      -1.026399       -27.9297
  38   2.0000      -1.023050       -27.8386
  39   2.0000      -1.016058       -27.6483
  40   2.0000      -0.961135       -26.1538
  41   2.0000      -0.960071       -26.1249
  42   2.0000      -0.873789       -23.7770
  43   2.0000      -0.861167       -23.4335
  44   2.0000      -0.852347       -23.1936
  45   2.0000      -0.842324       -22.9208
  46   2.0000      -0.830869       -22.6091
  47   2.0000      -0.809512       -22.0279
  48   2.0000      -0.795541       -21.6478
  49   2.0000      -0.785985       -21.3877
  50   2.0000      -0.746050       -20.3010
  51   2.0000      -0.731739       -19.9116
  52   2.0000      -0.719098       -19.5677
  53   2.0000      -0.687784       -18.7156
  54   2.0000      -0.677489       -18.4354
  55   2.0000      -0.669382       -18.2148
  56   2.0000      -0.664819       -18.0906
  57   2.0000      -0.658300       -17.9133
  58   2.0000      -0.648118       -17.6362
  59   2.0000      -0.633444       -17.2369
  60   2.0000      -0.632232       -17.2039
  61   2.0000      -0.622918       -16.9505
  62   2.0000      -0.618130       -16.8202
  63   2.0000      -0.609093       -16.5743
  64   2.0000      -0.591210       -16.0876
  65   2.0000      -0.583321       -15.8730
  66   2.0000      -0.579097       -15.7580
  67   2.0000      -0.575239       -15.6530
  68   2.0000      -0.571447       -15.5499
  69   2.0000      -0.556500       -15.1431
  70   2.0000      -0.546687       -14.8761
  71   2.0000      -0.533791       -14.5252
  72   2.0000      -0.521447       -14.1893
  73   2.0000      -0.518847       -14.1186
  74   2.0000      -0.517533       -14.0828
  75   2.0000      -0.514285       -13.9944
  76   2.0000      -0.509867       -13.8742
  77   2.0000      -0.500765       -13.6265
  78   2.0000      -0.467485       -12.7209
  79   2.0000      -0.459567       -12.5054
  80   2.0000      -0.455942       -12.4068
  81   2.0000      -0.450123       -12.2485
  82   2.0000      -0.420752       -11.4493
  83   2.0000      -0.414701       -11.2846
  84   2.0000      -0.390479       -10.6255
  85   2.0000      -0.358197        -9.7470
  86   2.0000      -0.355854        -9.6833
  87   2.0000      -0.354316        -9.6414
  88   2.0000      -0.330102        -8.9825
  89   2.0000      -0.327675        -8.9165
  90   0.0000       0.094910         2.5826
  91   0.0000       0.104689         2.8487
  92   0.0000       0.112230         3.0539
  93   0.0000       0.150243         4.0883
  94   0.0000       0.163623         4.4524

MULLIKEN ATOMIC CHARGES
-----------------------
   0 C :   -0.034158
   1 C :   -0.030397
   2 C :   -0.027731
   3 C :   -0.153227
   4 C :    0.298828
   5 N :   -0.490591
   6 C :    0.284798
   7 N :   -0.324340
   8 C :   -0.046273
   9 C :    0.502610
  10 N :   -0.351656
  11 C :    0.068276
  12 C :    0.323839
  13 N :   -0.671692
  14 C :    0.198000
  15 C :   -0.113916
  16 S :   -0.139062
  17 C :   -0.108350
  18 C :    0.177308
  19 N :   -0.080389
  20 O :   -0.415836
  21 C :    0.163303
  22 C :   -0.021688
  23 C :   -0.030662
  24 H :    0.049584
  25 H :    0.049004
  26 H :    0.035578
  27 H :    0.058596
  28 H :    0.060362
  29 H :    0.063831
  30 H :    0.053280
  31 H :    0.034407
  32 H :    0.031609
  33 H :    0.051274
  34 H :    0.076516
  35 H :    0.080185
  36 H :    0.075415
  37 H :    0.065612
  38 H :    0.038379
  39 H :    0.045770
  40 H :    0.070301
  41 H :    0.034233
  42 H :    0.049067
Sum of atomic charges:    0.0000000

LOEWDIN ATOMIC CHARGES
----------------------
   0 C :   -0.019092
   1 C :   -0.015645
   2 C :   -0.024055
   3 C :   -0.050281
   4 C :    0.099202
   5 N :   -0.013760
   6 C :    0.081569
   7 N :   -0.151920
   8 C :   -0.064594
   9 C :    0.181796
  10 N :   -0.187438
  11 C :    0.051860
  12 C :    0.071221
  13 N :   -0.199764
  14 C :    0.050691
  15 C :   -0.118674
  16 S :    0.172090
  17 C :   -0.131566
  18 C :    0.050552
  19 N :   -0.098072
  20 O :   -0.107876
  21 C :    0.029517
  22 C :   -0.020912
  23 C :   -0.015029
  24 H :    0.030254
  25 H :    0.030777
  26 H :    0.024699
  27 H :    0.030200
  28 H :    0.031774
  29 H :    0.023301
  30 H :    0.032022
  31 H :    0.009547
  32 H :    0.002494
  33 H :    0.017743
  34 H :    0.015508
  35 H :    0.026364
  36 H :    0.022614
  37 H :    0.009704
  38 H :    0.018632
  39 H :    0.014797
  40 H :    0.034409
  41 H :    0.024545
  42 H :    0.030795

  Mayer bond orders larger than 0.100000
B(  0-C ,  1-C ) :   1.4192 B(  0-C , 23-C ) :   1.4117 B(  0-C , 24-H ) :   0.9992
B(  1-C ,  2-C ) :   1.4278 B(  1-C , 25-H ) :   0.9987 B(  2-C ,  3-C ) :   1.4183
B(  2-C , 26-H ) :   1.0012 B(  3-C ,  4-C ) :   0.9969 B(  3-C , 22-C ) :   1.4062
B(  4-C ,  5-N ) :   0.8706 B(  4-C , 27-H ) :   0.9854 B(  4-C , 28-H ) :   0.9838
B(  5-N ,  6-C ) :   1.1547 B(  5-N , 21-C ) :   1.1373 B(  6-C ,  7-N ) :   1.6605
B(  6-C , 29-H ) :   0.9923 B(  7-N ,  8-C ) :   1.3441 B(  8-C ,  9-C ) :   1.0489
B(  8-C , 21-C ) :   1.5797 B(  9-C , 10-N ) :   1.6759 B(  9-C , 20-O ) :   1.0823
B( 10-N , 11-C ) :   1.2600 B( 11-C , 12-C ) :   1.0058 B( 11-C , 19-N ) :   1.7029
B( 12-C , 13-N ) :   0.9678 B( 12-C , 30-H ) :   0.9557 B( 12-C , 31-H ) :   0.9713
B( 13-N , 14-C ) :   0.9015 B( 13-N , 18-C ) :   0.9314 B( 14-C , 15-C ) :   1.0321
B( 14-C , 32-H ) :   0.9642 B( 14-C , 33-H ) :   0.9681 B( 15-C , 16-S ) :   0.9798
B( 15-C , 34-H ) :   0.9560 B( 15-C , 35-H ) :   0.9710 B( 16-S , 17-C ) :   0.9739
B( 17-C , 18-C ) :   1.0131 B( 17-C , 36-H ) :   0.9689 B( 17-C , 37-H ) :   0.9583
B( 18-C , 38-H ) :   0.9756 B( 18-C , 39-H ) :   0.9737 B( 19-N , 20-O ) :   0.8749
B( 21-C , 40-H ) :   0.9904 B( 22-C , 23-C ) :   1.4370 B( 22-C , 41-H ) :   1.0012
B( 23-C , 42-H ) :   0.9988

FINAL SINGLE POINT ENERGY     -1398.488944006936

DIPOLE MOMENT
-------------
                                X             Y             Z
Electronic contribution:      4.63517      -1.17427      -1.13724
Nuclear contribution   :     -1.87969       0.78483       0.97894
                        -----------------------------------------
Total Dipole Moment    :      2.75548      -0.38944      -0.15829
                        -----------------------------------------
Magnitude (a.u.)       :      2.78736
Magnitude (Debye)      :      7.08491

Rotational constants in cm-1:     0.027664     0.001987     0.001965
Rotational constants in MHz :   829.346123    59.576594    58.909381

                             ****ORCA TERMINATED NORMALLY****
TOTAL RUN TIME: 0 days 0 hours 0 minutes 24 seconds 174 msec
