                         Program Version 5.0.3 -  RELEASE  -
|  1> !RHF def2-SVP TightSCF PAL16
|  2> *xyz 0 1
|  3> C 6.529830253640919 -0.3397361536742625 0.1103561672182912
|  4> C 5.474957540522843 0.15882445254480404 -0.5479477954502743
|  5> C 4.945480093820719 1.5514497704186037 -0.3544160633099699
|  6> C 3.625438321907527 1.5511638759358872 0.3312202702126994
|  7> C 2.3681355139723217 1.5090786552373432 -0.13449822845324952
|  8> C 1.949836491188917 1.424084589802858 -1.564628895582834
|  9> C 1.3101993389747728 1.540755004802713 0.9381131848470149
| 10> O 0.6132220186837342 0.2905032209806915 0.899723516942063
| 11> C -0.524232172476391 0.25858732836634374 1.6462630473971767
| 12> O -0.9473694257488914 1.1737305281397892 2.33630291498292
| 13> C -1.1629114664473645 -1.0758866804626295 1.6111130242228138
| 14> C -2.6320966154997465 -1.2933273995812478 1.311447019547925
| 15> C -3.5386184197915407 -0.1822978113317976 0.9880235735342907
| 16> C -4.621870017502855 -0.22155019320279903 0.18833652639972234
| 17> C -5.470362706784089 1.000646495801843 -0.038409626864590186
| 18> C -5.0848549192820345 -1.4544640751729367 -0.536766114317246
| 19> C -1.5813502809974693 -1.7528536362511347 0.3122735099113295
| 20> C -1.4196015821867383 -1.0273642953651243 -1.003373891565163
| 21> C -1.3372194220289069 -3.2374307619142773 0.19988446803329663
| 22> C 2.0780724674422473 1.7124553720926057 2.2466556276322773
| 23> C 3.505732552847973 1.6609356233352075 1.7979299165022042
| 24> O 4.467009521520339 1.7332477970453435 2.550721342048982
| 25> H 7.064846745076556 0.24591121304443936 0.8521926697599671
| 26> H 6.870331391095833 -1.3541159912472631 -0.06768145696716579
| 27> H 4.961338028617988 -0.4675105512375219 -1.2733793996001201
| 28> H 5.659462262956308 2.168022443958091 0.2057852858396545
| 29> H 4.86261813707865 2.0291469452356337 -1.3378868750131205
| 30> H 2.8042099239272784 1.4055287254358089 -2.247972190731872
| 31> H 1.3706142315261973 0.5136206440650344 -1.7414821699714003
| 32> H 1.329847524920139 2.2870874371745167 -1.8297719616185413
| 33> H 0.6181754079965314 2.374645744099665 0.7613331043953505
| 34> H -0.7582823863370948 -1.718347850113225 2.3895169157964053
| 35> H -3.1189427132733076 -2.0563325192268795 1.9154080686888701
| 36> H -3.3188247610504877 0.7622934661691436 1.4853504664163275
| 37> H -5.474291762148169 1.2673397748935031 -1.1006786596296374
| 38> H -6.501215183512438 0.8106962349742484 0.2767814915141075
| 39> H -5.107957971983686 1.868277514671854 0.5213057001802743
| 40> H -6.1112712110954694 -1.701647542851763 -0.24571613739692405
| 41> H -5.062053152014566 -1.285277567932109 -1.6181094211630103
| 42> H -4.466499427536587 -2.3310003202119303 -0.3281991475304095
| 43> H -2.161182827885883 -1.3851873529128855 -1.7257934434296314
| 44> H -1.5364719987866646 0.056249124959252765 -0.9143750544576547
| 45> H -0.4260756999702251 -1.2202099352499447 -1.42006361488765
| 46> H -2.0079656060469713 -3.679759830852002 -0.5452135557946938
| 47> H -0.30305788521177196 -3.4304328022381108 -0.1076772232304673
| 48> H -1.505706785987645 -3.752911802177616 1.151219409504844
| 49> H 1.8847760113634537 0.9178614263854922 2.972619011949487
| 50> H 1.8861526224999092 2.6955016636361786 2.688959548159528
| 51> *
| 52>
| 53>                          ****END OF INPUT****

CARTESIAN COORDINATES (ANGSTROEM)
---------------------------------
  C      6.529830   -0.339736    0.110356
  C      5.474958    0.158824   -0.547948
  C      4.945480    1.551450   -0.354416
  C      3.625438    1.551164    0.331220
  C      2.368136    1.509079   -0.134498
  C      1.949836    1.424085   -1.564629
  C      1.310199    1.540755    0.938113
  O      0.613222    0.290503    0.899724
  C     -0.524232    0.258587    1.646263
  O     -0.947369    1.173731    2.336303
  C     -1.162911   -1.075887    1.611113
  C     -2.632097   -1.293327    1.311447
  C     -3.538618   -0.182298    0.988024
  C     -4.621870   -0.221550    0.188337
  C     -5.470363    1.000646   -0.038410
  C     -5.084855   -1.454464   -0.536766
  C     -1.581350   -1.752854    0.312274
  C     -1.419602   -1.027364   -1.003374
  C     -1.337219   -3.237431    0.199884
  C      2.078072    1.712455    2.246656
  C      3.505733    1.660936    1.797930
  O      4.467010    1.733248    2.550721
  H      7.064847    0.245911    0.852193
  H      6.870331   -1.354116   -0.067681
  H      4.961338   -0.467511   -1.273379
  H      5.659462    2.168022    0.205785
  H      4.862618    2.029147   -1.337887
  H      2.804210    1.405529   -2.247972
  H      1.370614    0.513621   -1.741482
  H      1.329848    2.287087   -1.829772
  H      0.618175    2.374646    0.761333
  H     -0.758282   -1.718348    2.389517
  H     -3.118943   -2.056333    1.915408
  H     -3.318825    0.762293    1.485350
  H     -5.474292    1.267340   -1.100679
  H     -6.501215    0.810696    0.276781
  H     -5.107958    1.868278    0.521306
  H     -6.111271   -1.701648   -0.245716
  H     -5.062053   -1.285278   -1.618109
  H     -4.466499   -2.331000   -0.328199
  H     -2.161183   -1.385187   -1.725793
  H     -1.536472    0.056249   -0.914375
  H     -0.426076   -1.220210   -1.420064
  H     -2.007966   -3.679760   -0.545214
  H     -0.303058   -3.430433   -0.107677
  H     -1.505707   -3.752912    1.151219
  H      1.884776    0.917861    2.972619
  H      1.886153    2.695502    2.688960

 Total Charge           Charge          ....    0
 Multiplicity           Mult            ....    1
 Number of Electrons    NEL             ....  164
 Basis Dimension        Dim             ....  438

ORBITAL ENERGIES
----------------

  NO   OCC          E(Eh)            E(eV)
   0   2.0000     -20.612998      -560.9082
   1   2.0000     -20.552577      -559.2640
   2   2.0000     -20.527549      -558.5830
   3   2.0000     -11.396756      -310.1215
   4   2.0000     -11.322729      -308.1071
   5   2.0000     -11.313100      -307.8451
   6   2.0000     -11.268512      -306.6318
   7   2.0000     -11.253527      -306.2240
   8   2.0000     -11.250072      -306.1300
   9   2.0000     -11.247813      -306.0686
  10   2.0000     -11.246564      -306.0346
  11   2.0000     -11.244441      -305.9768
  12   2.0000     -11.243193      -305.9428
  13   2.0000     -11.240309      -305.8644
  14   2.0000     -11.239581      -305.8445
  15   2.0000     -11.237410      -305.7855
  16   2.0000     -11.232094      -305.6408
  17   2.0000     -11.231988      -305.6379
  18   2.0000     -11.229515      -305.5706
  19   2.0000     -11.228346      -305.5388
  20   2.0000     -11.226182      -305.4799
  21   2.0000     -11.219183      -305.2895
  22   2.0000      -1.454740       -39.5855
  23   2.0000      -1.355562       -36.8867
  24   2.0000      -1.351469       -36.7753
  25   2.0000      -1.176053       -32.0020
  26   2.0000      -1.160351       -31.5748
  27   2.0000      -1.081207       -29.4211
  28   2.0000      -1.073454       -29.2102
  29   2.0000      -1.025175       -27.8964
  30   2.0000      -1.003037       -27.2940
  31   2.0000      -0.989422       -26.9235
  32   2.0000      -0.954319       -25.9683
  33   2.0000      -0.940672       -25.5970
  34   2.0000      -0.933870       -25.4119
  35   2.0000      -0.914257       -24.8782
  36   2.0000      -0.911476       -24.8025
  37   2.0000      -0.855923       -23.2908
  38   2.0000      -0.785288       -21.3688
  39   2.0000      -0.771338       -20.9892
  40   2.0000      -0.769785       -20.9469
  41   2.0000      -0.755825       -20.5670
  42   2.0000      -0.725486       -19.7415
  43   2.0000      -0.705088       -19.1864
  44   2.0000      -0.692690       -18.8491
  45   2.0000      -0.683675       -18.6037
  46   2.0000      -0.667062       -18.1517
  47   2.0000      -0.656899       -17.8751
  48   2.0000      -0.644807       -17.5461
  49   2.0000      -0.635627       -17.2963
  50   2.0000      -0.625330       -17.0161
  51   2.0000      -0.620098       -16.8737
  52   2.0000      -0.614572       -16.7234
  53   2.0000      -0.603916       -16.4334
  54   2.0000      -0.599806       -16.3216
  55   2.0000      -0.596251       -16.2248
  56   2.0000      -0.588325       -16.0091
  57   2.0000      -0.586427       -15.9575
  58   2.0000      -0.573952       -15.6180
  59   2.0000      -0.571801       -15.5595
  60   2.0000      -0.556521       -15.1437
  61   2.0000      -0.554824       -15.0975
  62   2.0000      -0.549947       -14.9648
  63   2.0000      -0.545215       -14.8361
  64   2.0000      -0.540807       -14.7161
  65   2.0000      -0.539303       -14.6752
  66   2.0000      -0.523592       -14.2477
  67   2.0000      -0.520389       -14.1605
  68   2.0000      -0.515370       -14.0239
  69   2.0000      -0.510026       -13.8785
  70   2.0000      -0.505068       -13.7436
  71   2.0000      -0.500314       -13.6142
  72   2.0000      -0.487714       -13.2714
  73   2.0000      -0.479977       -13.0609
  74   2.0000      -0.474057       -12.8998
  75   2.0000      -0.462387       -12.5822
  76   2.0000      -0.420101       -11.4315
  77   2.0000      -0.412442       -11.2231
  78   2.0000      -0.406649       -11.0655
  79   2.0000      -0.373675       -10.1682
  80   2.0000      -0.357929        -9.7397
  81   2.0000      -0.331028        -9.0077
  82   0.0000       0.101132         2.7519
  83   0.0000       0.135036         3.6745
  84   0.0000       0.159229         4.3328
  85   0.0000       0.167248         4.5511
  86   0.0000       0.169175         4.6035

MULLIKEN ATOMIC CHARGES
-----------------------
   0 C :   -0.055445
   1 C :   -0.147347
   2 C :    0.152892
   3 C :   -0.262635
   4 C :   -0.205658
   5 C :    0.100153
   6 C :    0.215878
   7 O :   -0.546617
   8 C :    0.529672
   9 O :   -0.414538
  10 C :   -0.019752
  11 C :   -0.029107
  12 C :   -0.072644
  13 C :   -0.284533
  14 C :    0.056170
  15 C :    0.056332
  16 C :   -0.437405
  17 C :    0.114117
  18 C :    0.096027
  19 C :    0.052035
  20 C :    0.249575
  21 O :   -0.391808
  22 H :    0.062576
  23 H :    0.052346
  24 H :    0.040949
  25 H :    0.061065
  26 H :    0.044767
  27 H :    0.037861
  28 H :    0.062673
  29 H :    0.046841
  30 H :    0.062517
  31 H :    0.078940
  32 H :    0.062369
  33 H :    0.058700
  34 H :    0.032948
  35 H :    0.035269
  36 H :    0.035569
  37 H :    0.039202
  38 H :    0.036041
  39 H :    0.036693
  40 H :    0.031038
  41 H :    0.029103
  42 H :    0.040348
  43 H :    0.031170
  44 H :    0.035759
  45 H :    0.021580
  46 H :    0.082442
  47 H :    0.085871
Sum of atomic charges:    0.0000000

LOEWDIN ATOMIC CHARGES
----------------------
   0 C :   -0.041926
   1 C :   -0.025129
   2 C :   -0.002899
   3 C :   -0.072800
   4 C :   -0.000092
   5 C :   -0.024581
   6 C :    0.122570
   7 O :   -0.177299
   8 C :    0.225219
   9 O :   -0.263026
  10 C :   -0.048926
  11 C :   -0.013373
  12 C :   -0.062737
  13 C :   -0.033353
  14 C :   -0.021542
  15 C :   -0.027416
  16 C :   -0.044047
  17 C :   -0.013766
  18 C :   -0.012462
  19 C :   -0.025712
  20 C :    0.151537
  21 O :   -0.258677
  22 H :    0.025707
  23 H :    0.020975
  24 H :    0.018595
  25 H :    0.038491
  26 H :    0.026542
  27 H :    0.025430
  28 H :    0.035146
  29 H :    0.031393
  30 H :    0.021515
  31 H :    0.041649
  32 H :    0.026783
  33 H :    0.023050
  34 H :    0.020556
  35 H :    0.021301
  36 H :    0.022830
  37 H :    0.024533
  38 H :    0.022576
  39 H :    0.019792
  40 H :    0.020439
  41 H :    0.016213
  42 H :    0.018661
  43 H :    0.017191
  44 H :    0.019334
  45 H :    0.016472
  46 H :    0.046265
  47 H :    0.048998

  Mayer bond orders larger than 0.100000
B(  0-C ,  1-C ) :   2.0136 B(  0-C , 22-H ) :   0.9757 B(  0-C , 23-H ) :   0.9774
B(  1-C ,  2-C ) :   1.0027 B(  1-C , 24-H ) :   0.9774 B(  2-C ,  3-C ) :   0.9699
B(  2-C , 25-H ) :   0.9619 B(  2-C , 26-H ) :   0.9774 B(  3-C ,  4-C ) :   1.8737
B(  3-C , 20-C ) :   0.9863 B(  4-C ,  5-C ) :   0.9935 B(  4-C ,  6-C ) :   1.0050
B(  5-C , 27-H ) :   0.9790 B(  5-C , 28-H ) :   0.9724 B(  5-C , 29-H ) :   0.9717
B(  6-C ,  7-O ) :   0.7875 B(  6-C , 19-C ) :   1.0265 B(  6-C , 30-H ) :   0.9560
B(  7-O ,  8-C ) :   1.0495 B(  8-C ,  9-O ) :   1.9376 B(  8-C , 10-C ) :   0.9589
B( 10-C , 11-C ) :   0.9555 B( 10-C , 16-C ) :   0.9147 B( 10-C , 31-H ) :   0.9329
B( 11-C , 12-C ) :   0.9890 B( 11-C , 16-C ) :   0.8752 B( 11-C , 32-H ) :   0.9577
B( 12-C , 13-C ) :   1.9621 B( 12-C , 33-H ) :   0.9801 B( 13-C , 14-C ) :   1.0148
B( 13-C , 15-C ) :   1.0059 B( 14-C , 34-H ) :   0.9770 B( 14-C , 35-H ) :   0.9772
B( 14-C , 36-H ) :   0.9875 B( 15-C , 37-H ) :   0.9759 B( 15-C , 38-H ) :   0.9747
B( 15-C , 39-H ) :   0.9833 B( 16-C , 17-C ) :   1.0115 B( 16-C , 18-C ) :   1.0094
B( 17-C , 40-H ) :   0.9765 B( 17-C , 41-H ) :   0.9712 B( 17-C , 42-H ) :   0.9787
B( 18-C , 43-H ) :   0.9838 B( 18-C , 44-H ) :   0.9828 B( 18-C , 45-H ) :   0.9808
B( 19-C , 20-C ) :   0.9967 B( 19-C , 46-H ) :   0.9498 B( 19-C , 47-H ) :   0.9518
B( 20-C , 21-O ) :   2.0404

FINAL SINGLE POINT ENERGY      -958.454219788237

DIPOLE MOMENT
-------------
                                X             Y             Z
Electronic contribution:     15.89508       9.47061      14.09746
Nuclear contribution   :    -16.88933     -10.08402     -15.77603
                        -----------------------------------------
Total Dipole Moment    :     -0.99424      -0.61341      -1.67858
                        -----------------------------------------
Magnitude (a.u.)       :      2.04509
Magnitude (Debye)      :      5.19822

Rotational constants in cm-1:     0.019438     0.004093     0.003905
Rotational constants in MHz :   582.723293   122.702757   117.068212

                             ****ORCA TERMINATED NORMALLY****
TOTAL RUN TIME: 0 days 0 hours 0 minutes 29 seconds 594 msec
