                         Program Version 5.0.3 -  RELEASE  -
|  1> !RHF def2-SVP TightSCF PAL16
|  2> *xyz 0 1
|  3> C 1.207988937987612 4.076900957530554 -1.1667207464640232
|  4> N 0.9103718325422717 2.8361153463821513 -1.8722765307712033
|  5> C -0.500019526406829 2.4445888683676666 -1.7866585540048252
|  6> C -1.0345200670891592 2.025539459097239 -0.4054136287165804
|  7> C -0.6604040842845414 0.6077987668414151 0.00102411261292125
|  8> C 0.6326838954312769 0.22095239621200152 0.13470020073528371
|  9> C 1.7854651447413716 1.1823803687405348 -0.11448261036156612
| 10> C 1.835315307352285 1.7469501762765633 -1.5456569780243288
| 11> C 1.0426066038916555 -1.1600334610653809 0.5182542593988849
| 12> C 1.938236191188675 -1.3307624878103277 1.590206225630176
| 13> C 2.4054792185780562 -2.6018660627584094 1.9463134513707279
| 14> C 3.320283431203721 -2.7494901236215847 3.0401664756656404
| 15> N 4.062413411735677 -2.866547406872656 3.9246286152757923
| 16> C 1.9809509237522223 -3.7226455888058116 1.231287668562088
| 17> C 1.0789297759150398 -3.5745225276836163 0.17662376030067942
| 18> C 0.5998405063959333 -2.3046927043557 -0.1771716230801208
| 19> S -0.6401219705112074 -2.213724965425473 -1.4695274919378398
| 20> C -1.9507035473580012 -1.5403597613011184 -0.4453259585220251
| 21> C -3.1029069903254376 -2.3198633156529116 -0.26571831162906084
| 22> C -4.121229156910066 -1.8911692655488748 0.5845824847608685
| 23> C -3.9919349212353277 -0.6856933883746203 1.2665875094058738
| 24> C -2.8520397262145347 0.10097027556152455 1.0854614349518528
| 25> C -1.8206268478100474 -0.302984447104134 0.21891626170075099
| 26> H 2.240551573707504 4.3887104260783945 -1.360060981809574
| 27> H 1.0749198318624043 4.005166322168105 -0.08345980187152349
| 28> H 0.5683300850087709 4.887970114779368 -1.5324942448452439
| 29> H -1.1051329221820188 3.289258065792859 -2.142522924385624
| 30> H -0.6904143383485725 1.6417900434684065 -2.511766849270267
| 31> H -2.125988228918787 2.1277598907681567 -0.4646755767326427
| 32> H -0.7291892284413218 2.7272409240677966 0.379547668243101
| 33> H 2.7447234144982753 0.6704887263465977 0.03772776264625829
| 34> H 1.770313075387178 1.9797952658274176 0.6376282680431933
| 35> H 1.6912580850783359 0.9304640943194575 -2.266156319013148
| 36> H 2.8562983954325234 2.105653530133153 -1.7332565514239429
| 37> H 2.273336298622628 -0.4632096771619882 2.157854500807777
| 38> H 2.336580807224858 -4.717052209945987 1.4950752555523823
| 39> H 0.7381571899730883 -4.459055985056776 -0.3579940620364945
| 40> H -3.207128890253024 -3.2741638267658195 -0.7768481416432121
| 41> H -5.008616710304772 -2.5036999094678754 0.7223084646694841
| 42> H -4.779163185293803 -0.35356631393860455 1.938922943559522
| 43> H -2.7748935954266236 1.0386094100279935 1.632094130048098
| 44> *
| 45>
| 46>                          ****END OF INPUT****

CARTESIAN COORDINATES (ANGSTROEM)
---------------------------------
  C      1.207989    4.076901   -1.166721
  N      0.910372    2.836115   -1.872277
  C     -0.500020    2.444589   -1.786659
  C     -1.034520    2.025539   -0.405414
  C     -0.660404    0.607799    0.001024
  C      0.632684    0.220952    0.134700
  C      1.785465    1.182380   -0.114483
  C      1.835315    1.746950   -1.545657
  C      1.042607   -1.160033    0.518254
  C      1.938236   -1.330762    1.590206
  C      2.405479   -2.601866    1.946313
  C      3.320283   -2.749490    3.040166
  N      4.062413   -2.866547    3.924629
  C      1.980951   -3.722646    1.231288
  C      1.078930   -3.574523    0.176624
  C      0.599841   -2.304693   -0.177172
  S     -0.640122   -2.213725   -1.469527
  C     -1.950704   -1.540360   -0.445326
  C     -3.102907   -2.319863   -0.265718
  C     -4.121229   -1.891169    0.584582
  C     -3.991935   -0.685693    1.266588
  C     -2.852040    0.100970    1.085461
  C     -1.820627   -0.302984    0.218916
  H      2.240552    4.388710   -1.360061
  H      1.074920    4.005166   -0.083460
  H      0.568330    4.887970   -1.532494
  H     -1.105133    3.289258   -2.142523
  H     -0.690414    1.641790   -2.511767
  H     -2.125988    2.127760   -0.464676
  H     -0.729189    2.727241    0.379548
  H      2.744723    0.670489    0.037728
  H      1.770313    1.979795    0.637628
  H      1.691258    0.930464   -2.266156
  H      2.856298    2.105654   -1.733257
  H      2.273336   -0.463210    2.157855
  H      2.336581   -4.717052    1.495075
  H      0.738157   -4.459056   -0.357994
  H     -3.207129   -3.274164   -0.776848
  H     -5.008617   -2.503700    0.722308
  H     -4.779163   -0.353566    1.938923
  H     -2.774894    1.038609    1.632094

 Total Charge           Charge          ....    0
 Multiplicity           Mult            ....    1
 Number of Electrons    NEL             ....  168
 Basis Dimension        Dim             ....  416

ORBITAL ENERGIES
----------------

  NO   OCC          E(Eh)            E(eV)
   0   2.0000     -91.937074     -2501.7350
   1   2.0000     -15.577625      -423.8887
   2   2.0000     -15.545150      -423.0050
   3   2.0000     -11.294407      -307.3364
   4   2.0000     -11.293240      -307.3047
   5   2.0000     -11.284964      -307.0795
   6   2.0000     -11.281510      -306.9855
   7   2.0000     -11.277304      -306.8710
   8   2.0000     -11.276187      -306.8407
   9   2.0000     -11.273755      -306.7745
  10   2.0000     -11.267458      -306.6031
  11   2.0000     -11.266620      -306.5803
  12   2.0000     -11.259321      -306.3817
  13   2.0000     -11.259154      -306.3772
  14   2.0000     -11.258119      -306.3490
  15   2.0000     -11.256503      -306.3050
  16   2.0000     -11.256391      -306.3020
  17   2.0000     -11.254606      -306.2534
  18   2.0000     -11.253567      -306.2251
  19   2.0000     -11.253441      -306.2217
  20   2.0000     -11.250602      -306.1444
  21   2.0000     -11.240258      -305.8630
  22   2.0000     -11.239227      -305.8349
  23   2.0000      -8.971873      -244.1371
  24   2.0000      -6.659760      -181.2213
  25   2.0000      -6.658448      -181.1856
  26   2.0000      -6.656188      -181.1241
  27   2.0000      -1.219264       -33.1778
  28   2.0000      -1.213200       -33.0129
  29   2.0000      -1.188123       -32.3305
  30   2.0000      -1.165089       -31.7037
  31   2.0000      -1.113364       -30.2962
  32   2.0000      -1.084311       -29.5056
  33   2.0000      -1.058900       -28.8141
  34   2.0000      -1.033907       -28.1340
  35   2.0000      -1.022463       -27.8226
  36   2.0000      -1.013753       -27.5856
  37   2.0000      -0.965292       -26.2669
  38   2.0000      -0.944281       -25.6952
  39   2.0000      -0.905342       -24.6356
  40   2.0000      -0.898690       -24.4546
  41   2.0000      -0.853575       -23.2270
  42   2.0000      -0.847407       -23.0591
  43   2.0000      -0.832129       -22.6434
  44   2.0000      -0.804876       -21.9018
  45   2.0000      -0.772743       -21.0274
  46   2.0000      -0.769443       -20.9376
  47   2.0000      -0.723035       -19.6748
  48   2.0000      -0.685832       -18.6624
  49   2.0000      -0.683186       -18.5904
  50   2.0000      -0.666042       -18.1239
  51   2.0000      -0.659054       -17.9338
  52   2.0000      -0.649401       -17.6711
  53   2.0000      -0.646190       -17.5837
  54   2.0000      -0.641337       -17.4517
  55   2.0000      -0.634560       -17.2673
  56   2.0000      -0.619086       -16.8462
  57   2.0000      -0.612356       -16.6630
  58   2.0000      -0.597778       -16.2664
  59   2.0000      -0.583220       -15.8702
  60   2.0000      -0.576419       -15.6852
  61   2.0000      -0.562064       -15.2945
  62   2.0000      -0.556990       -15.1565
  63   2.0000      -0.552148       -15.0247
  64   2.0000      -0.547721       -14.9043
  65   2.0000      -0.539140       -14.6707
  66   2.0000      -0.532749       -14.4968
  67   2.0000      -0.531125       -14.4527
  68   2.0000      -0.523125       -14.2350
  69   2.0000      -0.516958       -14.0671
  70   2.0000      -0.508892       -13.8476
  71   2.0000      -0.497743       -13.5443
  72   2.0000      -0.493256       -13.4222
  73   2.0000      -0.486107       -13.2277
  74   2.0000      -0.471648       -12.8342
  75   2.0000      -0.463500       -12.6125
  76   2.0000      -0.460714       -12.5367
  77   2.0000      -0.407455       -11.0874
  78   2.0000      -0.392397       -10.6777
  79   2.0000      -0.361957        -9.8493
  80   2.0000      -0.354618        -9.6496
  81   2.0000      -0.348712        -9.4889
  82   2.0000      -0.332222        -9.0402
  83   2.0000      -0.311327        -8.4716
  84   0.0000       0.067496         1.8367
  85   0.0000       0.084345         2.2952
  86   0.0000       0.103963         2.8290
  87   0.0000       0.112623         3.0646
  88   0.0000       0.164160         4.4670

MULLIKEN ATOMIC CHARGES
-----------------------
   0 C :    0.157165
   1 N :   -0.624451
   2 C :    0.188843
   3 C :    0.025649
   4 C :   -0.098843
   5 C :   -0.112320
   6 C :    0.024328
   7 C :    0.190710
   8 C :   -0.061509
   9 C :    0.053216
  10 C :   -0.180784
  11 C :    0.043411
  12 N :   -0.103821
  13 C :    0.034534
  14 C :    0.012794
  15 C :   -0.118212
  16 S :    0.099615
  17 C :   -0.138549
  18 C :    0.017640
  19 C :   -0.037167
  20 C :   -0.022911
  21 C :   -0.020148
  22 C :   -0.060202
  23 H :    0.031023
  24 H :    0.002222
  25 H :    0.030381
  26 H :    0.029681
  27 H :    0.039035
  28 H :    0.045793
  29 H :    0.045236
  30 H :    0.044921
  31 H :    0.046513
  32 H :    0.038273
  33 H :    0.030646
  34 H :    0.056564
  35 H :    0.058788
  36 H :    0.053201
  37 H :    0.044457
  38 H :    0.047197
  39 H :    0.046200
  40 H :    0.040883
Sum of atomic charges:   -0.0000000

LOEWDIN ATOMIC CHARGES
----------------------
   0 C :    0.053942
   1 N :   -0.197663
   2 C :    0.069550
   3 C :   -0.026789
   4 C :   -0.023691
   5 C :   -0.037071
   6 C :   -0.027438
   7 C :    0.069581
   8 C :   -0.024124
   9 C :    0.026059
  10 C :   -0.080464
  11 C :    0.009870
  12 N :   -0.103279
  13 C :    0.011824
  14 C :   -0.024428
  15 C :   -0.129269
  16 S :    0.293308
  17 C :   -0.154006
  18 C :   -0.023721
  19 C :   -0.027486
  20 C :   -0.015074
  21 C :   -0.016250
  22 C :   -0.026029
  23 H :    0.014369
  24 H :   -0.013170
  25 H :    0.014115
  26 H :    0.012512
  27 H :    0.017055
  28 H :    0.025666
  29 H :    0.022310
  30 H :    0.024667
  31 H :    0.022487
  32 H :    0.016798
  33 H :    0.012859
  34 H :    0.040001
  35 H :    0.040511
  36 H :    0.034344
  37 H :    0.029409
  38 H :    0.029737
  39 H :    0.029880
  40 H :    0.029097

  Mayer bond orders larger than 0.100000
B(  0-C ,  1-N ) :   0.9453 B(  0-C , 23-H ) :   0.9904 B(  0-C , 24-H ) :   0.9767
B(  0-C , 25-H ) :   0.9904 B(  1-N ,  2-C ) :   0.9597 B(  1-N ,  7-C ) :   0.9607
B(  2-C ,  3-C ) :   1.0263 B(  2-C , 26-H ) :   0.9869 B(  2-C , 27-H ) :   0.9765
B(  3-C ,  4-C ) :   0.9736 B(  3-C , 28-H ) :   0.9671 B(  3-C , 29-H ) :   0.9559
B(  4-C ,  5-C ) :   1.9404 B(  4-C , 22-C ) :   1.0273 B(  5-C ,  6-C ) :   0.9711
B(  5-C ,  8-C ) :   1.0263 B(  6-C ,  7-C ) :   1.0264 B(  6-C , 30-H ) :   0.9680
B(  6-C , 31-H ) :   0.9559 B(  7-C , 32-H ) :   0.9764 B(  7-C , 33-H ) :   0.9869
B(  8-C ,  9-C ) :   1.4360 B(  8-C , 15-C ) :   1.4346 B(  9-C , 10-C ) :   1.4033
B(  9-C , 34-H ) :   1.0010 B( 10-C , 11-C ) :   1.0186 B( 10-C , 13-C ) :   1.3773
B( 11-C , 12-N ) :   3.0314 B( 13-C , 14-C ) :   1.4480 B( 13-C , 35-H ) :   1.0002
B( 14-C , 15-C ) :   1.4043 B( 14-C , 36-H ) :   0.9982 B( 15-C , 16-S ) :   0.9832
B( 16-S , 17-C ) :   0.9762 B( 17-C , 18-C ) :   1.4105 B( 17-C , 22-C ) :   1.4392
B( 18-C , 19-C ) :   1.4353 B( 18-C , 37-H ) :   0.9987 B( 19-C , 20-C ) :   1.3960
B( 19-C , 38-H ) :   1.0000 B( 20-C , 21-C ) :   1.4316 B( 20-C , 39-H ) :   0.9990
B( 21-C , 22-C ) :   1.4229 B( 21-C , 40-H ) :   1.0009

FINAL SINGLE POINT ENERGY     -1273.457031039065

DIPOLE MOMENT
-------------
                                X             Y             Z
Electronic contribution:      1.57096     -23.11808       5.87679
Nuclear contribution   :     -3.03389      23.74687      -6.45992
                        -----------------------------------------
Total Dipole Moment    :     -1.46293       0.62878      -0.58313
                        -----------------------------------------
Magnitude (a.u.)       :      1.69575
Magnitude (Debye)      :      4.31026

Rotational constants in cm-1:     0.009306     0.007294     0.005010
Rotational constants in MHz :   278.979342   218.673236   150.199417

                             ****ORCA TERMINATED NORMALLY****
TOTAL RUN TIME: 0 days 0 hours 0 minutes 31 seconds 643 msec
