                         Program Version 5.0.3 -  RELEASE  -
|  1> !RHF def2-SVP TightSCF PAL16
|  2> *xyz 0 1
|  3> N -1.1085575720088636 -2.3991770298368453 -0.6458641916924758
|  4> C -1.456415413736152 -0.9850174711377272 -0.7866252970641412
|  5> C -0.7447169385036411 -0.08312795989675315 0.25594723603418257
|  6> C -1.2244480258814952 1.3764131528030494 0.14452009933186152
|  7> C -2.638629092600641 1.5495807125733483 0.6262524073706585
|  8> O -3.3205618088480375 0.7418224826951327 1.2322266495473009
|  9> O -3.1252226477119716 2.769665028849032 0.32691999931540444
| 10> C 0.7772535785806122 -0.12535714191623049 0.13944999769914443
| 11> C 1.5474643367338292 -0.5090623005842104 1.2495399512227348
| 12> C 2.942106803559545 -0.541063028379221 1.1733935175520536
| 13> C 3.578431575328245 -0.1877568888180904 -0.013189245276107094
| 14> Cl 5.296235115332621 -0.22531049066017436 -0.10712694108048937
| 15> C 2.8327061910843354 0.19766728003269285 -1.1238565540275796
| 16> C 1.4378224109958737 0.2298927763402898 -1.0478873235720905
| 17> H -1.6685389078745667 -2.953958803553317 -1.291507863348164
| 18> H -1.3503780767060498 -2.719847974182005 0.29112998671053875
| 19> H -2.5428926594386305 -0.8955563118309104 -0.6823046091195115
| 20> H -1.210965887825507 -0.6671138390948929 -1.8060379977162813
| 21> H -1.0194049416543505 -0.45861583241620885 1.252070864726694
| 22> H -0.5961959886530007 2.0321101205841345 0.7601625180248046
| 23> H -1.1655981203460135 1.7193041210542355 -0.8954203683887323
| 24> H -4.030030704003921 2.772053086062988 0.7046458718511659
| 25> H 1.0659116702225537 -0.7929095843746236 2.1829265382819605
| 26> H 3.5221345985951755 -0.8448090764879004 2.0403154199866305
| 27> H 3.3280610622918743 0.47051425610535647 -2.051503577730395
| 28> H 0.8744294430679115 0.529660716068676 -1.9281770886392064
| 29> *
| 30>
| 31>                          ****END OF INPUT****

CARTESIAN COORDINATES (ANGSTROEM)
---------------------------------
  N     -1.108558   -2.399177   -0.645864
  C     -1.456415   -0.985017   -0.786625
  C     -0.744717   -0.083128    0.255947
  C     -1.224448    1.376413    0.144520
  C     -2.638629    1.549581    0.626252
  O     -3.320562    0.741822    1.232227
  O     -3.125223    2.769665    0.326920
  C      0.777254   -0.125357    0.139450
  C      1.547464   -0.509062    1.249540
  C      2.942107   -0.541063    1.173394
  C      3.578432   -0.187757   -0.013189
  Cl     5.296235   -0.225310   -0.107127
  C      2.832706    0.197667   -1.123857
  C      1.437822    0.229893   -1.047887
  H     -1.668539   -2.953959   -1.291508
  H     -1.350378   -2.719848    0.291130
  H     -2.542893   -0.895556   -0.682305
  H     -1.210966   -0.667114   -1.806038
  H     -1.019405   -0.458616    1.252071
  H     -0.596196    2.032110    0.760163
  H     -1.165598    1.719304   -0.895420
  H     -4.030031    2.772053    0.704646
  H      1.065912   -0.792910    2.182927
  H      3.522135   -0.844809    2.040315
  H      3.328061    0.470514   -2.051504
  H      0.874429    0.529661   -1.928177

 Total Charge           Charge          ....    0
 Multiplicity           Mult            ....    1
 Number of Electrons    NEL             ....  112
 Basis Dimension        Dim             ....  260

ORBITAL ENERGIES
----------------

  NO   OCC          E(Eh)            E(eV)
   0   2.0000    -104.790160     -2851.4852
   1   2.0000     -20.614257      -560.9424
   2   2.0000     -20.552707      -559.2676
   3   2.0000     -15.538058      -422.8121
   4   2.0000     -11.398511      -310.1693
   5   2.0000     -11.295827      -307.3751
   6   2.0000     -11.262475      -306.4675
   7   2.0000     -11.259114      -306.3761
   8   2.0000     -11.254002      -306.2370
   9   2.0000     -11.253342      -306.2190
  10   2.0000     -11.252102      -306.1853
  11   2.0000     -11.250980      -306.1547
  12   2.0000     -11.249522      -306.1150
  13   2.0000     -11.248201      -306.0791
  14   2.0000     -10.554082      -287.1912
  15   2.0000      -8.029228      -218.4864
  16   2.0000      -8.025628      -218.3884
  17   2.0000      -8.025558      -218.3865
  18   2.0000      -1.457604       -39.6634
  19   2.0000      -1.344805       -36.5940
  20   2.0000      -1.184123       -32.2216
  21   2.0000      -1.168713       -31.8023
  22   2.0000      -1.120592       -30.4929
  23   2.0000      -1.073669       -29.2160
  24   2.0000      -1.017409       -27.6851
  25   2.0000      -0.992718       -27.0132
  26   2.0000      -0.932146       -25.3650
  27   2.0000      -0.852387       -23.1946
  28   2.0000      -0.838344       -22.8125
  29   2.0000      -0.809269       -22.0213
  30   2.0000      -0.773065       -21.0362
  31   2.0000      -0.713588       -19.4177
  32   2.0000      -0.706821       -19.2336
  33   2.0000      -0.677839       -18.4449
  34   2.0000      -0.670305       -18.2399
  35   2.0000      -0.654400       -17.8071
  36   2.0000      -0.649503       -17.6739
  37   2.0000      -0.637166       -17.3382
  38   2.0000      -0.619992       -16.8709
  39   2.0000      -0.604458       -16.4482
  40   2.0000      -0.595762       -16.2115
  41   2.0000      -0.591951       -16.1078
  42   2.0000      -0.558452       -15.1962
  43   2.0000      -0.553350       -15.0574
  44   2.0000      -0.543122       -14.7791
  45   2.0000      -0.525791       -14.3075
  46   2.0000      -0.515024       -14.0145
  47   2.0000      -0.496754       -13.5174
  48   2.0000      -0.486655       -13.2425
  49   2.0000      -0.483849       -13.1662
  50   2.0000      -0.462970       -12.5981
  51   2.0000      -0.455943       -12.4068
  52   2.0000      -0.447858       -12.1868
  53   2.0000      -0.387649       -10.5485
  54   2.0000      -0.349434        -9.5086
  55   2.0000      -0.325037        -8.8447
  56   0.0000       0.116893         3.1808
  57   0.0000       0.124144         3.3781
  58   0.0000       0.160741         4.3740
  59   0.0000       0.171657         4.6710
  60   0.0000       0.180134         4.9017

MULLIKEN ATOMIC CHARGES
-----------------------
   0 N :   -0.356855
   1 C :    0.196903
   2 C :   -0.140086
   3 C :   -0.048047
   4 C :    0.460178
   5 O :   -0.420960
   6 O :   -0.350645
   7 C :   -0.058105
   8 C :   -0.025070
   9 C :   -0.005404
  10 C :    0.029463
  11 Cl:   -0.142102
  12 C :   -0.006253
  13 C :   -0.019174
  14 H :    0.115556
  15 H :    0.113038
  16 H :    0.030253
  17 H :    0.015095
  18 H :    0.054655
  19 H :    0.093441
  20 H :    0.072265
  21 H :    0.224909
  22 H :    0.038347
  23 H :    0.045413
  24 H :    0.044979
  25 H :    0.038205
Sum of atomic charges:    0.0000000

LOEWDIN ATOMIC CHARGES
----------------------
   0 N :   -0.147363
   1 C :    0.059717
   2 C :   -0.014217
   3 C :   -0.031066
   4 C :    0.211096
   5 O :   -0.284410
   6 O :   -0.108083
   7 C :   -0.012618
   8 C :   -0.019475
   9 C :   -0.031980
  10 C :   -0.121037
  11 Cl:    0.089979
  12 C :   -0.030857
  13 C :   -0.016873
  14 H :    0.055890
  15 H :    0.052751
  16 H :   -0.000264
  17 H :    0.004941
  18 H :    0.024445
  19 H :    0.049577
  20 H :    0.038421
  21 H :    0.114555
  22 H :    0.027889
  23 H :    0.032138
  24 H :    0.032028
  25 H :    0.024815

  Mayer bond orders larger than 0.100000
B(  0-N ,  1-C ) :   1.0070 B(  0-N , 14-H ) :   0.9736 B(  0-N , 15-H ) :   0.9722
B(  1-C ,  2-C ) :   1.0082 B(  1-C , 16-H ) :   0.9845 B(  1-C , 17-H ) :   0.9617
B(  2-C ,  3-C ) :   1.0015 B(  2-C ,  7-C ) :   0.9687 B(  2-C , 18-H ) :   0.9670
B(  3-C ,  4-C ) :   0.9704 B(  3-C , 19-H ) :   0.9543 B(  3-C , 20-H ) :   0.9575
B(  4-C ,  5-O ) :   1.9624 B(  4-C ,  6-O ) :   1.1443 B(  6-O , 21-H ) :   0.9416
B(  7-C ,  8-C ) :   1.4366 B(  7-C , 13-C ) :   1.3893 B(  8-C ,  9-C ) :   1.4242
B(  8-C , 22-H ) :   0.9989 B(  9-C , 10-C ) :   1.4132 B(  9-C , 23-H ) :   1.0016
B( 10-C , 11-Cl) :   0.9445 B( 10-C , 12-C ) :   1.4043 B( 12-C , 13-C ) :   1.4440
B( 12-C , 24-H ) :   1.0018 B( 13-C , 25-H ) :   0.9988

FINAL SINGLE POINT ENERGY     -1048.771032047659

DIPOLE MOMENT
-------------
                                X             Y             Z
Electronic contribution:     17.64510       2.88144       1.82799
Nuclear contribution   :    -18.64558      -2.46647      -2.01455
                        -----------------------------------------
Total Dipole Moment    :     -1.00049       0.41497      -0.18656
                        -----------------------------------------
Magnitude (a.u.)       :      1.09908
Magnitude (Debye)      :      2.79364

Rotational constants in cm-1:     0.042792     0.008332     0.007738
Rotational constants in MHz :  1282.882231   249.798943   231.978057

                             ****ORCA TERMINATED NORMALLY****
TOTAL RUN TIME: 0 days 0 hours 0 minutes 8 seconds 985 msec
