                         Program Version 5.0.3 -  RELEASE  -
|  1> !RHF def2-SVP TightSCF PAL16
|  2> *xyz 0 1
|  3> C -3.147903092819103 -1.4785713838764514 0.11859940542374812
|  4> N -2.3305359622597623 -0.29663834732121436 0.3983925271835121
|  5> C -2.9575564519485478 0.8916354915811935 -0.17904090929080668
|  6> C -0.84763754044392 -0.45865693109811745 0.17530791528861253
|  7> C -0.32770465948533917 -1.2851455629028021 1.3813949595108261
|  8> C -0.487278064576093 -1.2494119728678974 -1.122238501134484
|  9> O -0.8448116311499004 -0.5491604216630404 -2.3100172705536286
| 10> C -0.11848526280215936 0.9389099230346281 0.18078748979767073
| 11> C 1.3979573673887031 0.9539579442990918 0.1297974503671705
| 12> C 2.070048434567365 0.9472068763272367 -1.0994444856580958
| 13> C 3.4660280816753075 0.9688434147021686 -1.1468555774447786
| 14> C 4.209960900566913 1.0048079066454996 0.034866987089556774
| 15> Cl 5.9323566117505795 1.0275746401924668 -0.09844329343491284
| 16> C 3.551552259853017 1.0224813078992685 1.2680639622230665
| 17> Cl 4.401329452568153 1.0698274916977455 2.7721846513129336
| 18> C 2.1525735612197354 1.0007098983382956 1.3121049623418164
| 19> H -4.156583023325753 -1.3452928428334512 0.5273739228649469
| 20> H -2.7545189974776667 -2.3807569272668307 0.5945933604735218
| 21> H -3.249078675691477 -1.6691561195033975 -0.9550286900626046
| 22> H -4.028208244550295 0.9177354347057585 0.058152771116708434
| 23> H -2.8604389237390366 0.9368562515625605 -1.2669724333167531
| 24> H -2.552747198107208 1.8122683113242835 0.25200895561689834
| 25> H 0.7482571151492649 -1.4757777669797623 1.3073318780824463
| 26> H -0.7992693587809634 -2.2708141531759978 1.4480278159688373
| 27> H -0.5117145381487114 -0.7634849121936548 2.327997482269705
| 28> H -0.9633843656806784 -2.235841254156674 -1.1491220449553685
| 29> H 0.5888189681754479 -1.4453941501735985 -1.1713385094926265
| 30> H -1.816049364644496 -0.5317947421034213 -2.3364311717405015
| 31> H -0.46810314356185473 1.5476695912189071 -0.6640849700021305
| 32> H -0.41794072595127163 1.4941428082141144 1.081571078996286
| 33> H 1.5079774474490613 0.9227761014948143 -2.032992993740004
| 34> H 3.96639935887548 0.9585840952473751 -2.1123577566778016
| 35> H 1.64668966590492 1.0199099996308538 2.2758110315762714
| 36> *
| 37>
| 38>                          ****END OF INPUT****

CARTESIAN COORDINATES (ANGSTROEM)
---------------------------------
  C     -3.147903   -1.478571    0.118599
  N     -2.330536   -0.296638    0.398393
  C     -2.957556    0.891635   -0.179041
  C     -0.847638   -0.458657    0.175308
  C     -0.327705   -1.285146    1.381395
  C     -0.487278   -1.249412   -1.122239
  O     -0.844812   -0.549160   -2.310017
  C     -0.118485    0.938910    0.180787
  C      1.397957    0.953958    0.129797
  C      2.070048    0.947207   -1.099444
  C      3.466028    0.968843   -1.146856
  C      4.209961    1.004808    0.034867
  Cl     5.932357    1.027575   -0.098443
  C      3.551552    1.022481    1.268064
  Cl     4.401329    1.069827    2.772185
  C      2.152574    1.000710    1.312105
  H     -4.156583   -1.345293    0.527374
  H     -2.754519   -2.380757    0.594593
  H     -3.249079   -1.669156   -0.955029
  H     -4.028208    0.917735    0.058153
  H     -2.860439    0.936856   -1.266972
  H     -2.552747    1.812268    0.252009
  H      0.748257   -1.475778    1.307332
  H     -0.799269   -2.270814    1.448028
  H     -0.511715   -0.763485    2.327997
  H     -0.963384   -2.235841   -1.149122
  H      0.588819   -1.445394   -1.171339
  H     -1.816049   -0.531795   -2.336431
  H     -0.468103    1.547670   -0.664085
  H     -0.417941    1.494143    1.081571
  H      1.507977    0.922776   -2.032993
  H      3.966399    0.958584   -2.112358
  H      1.646690    1.019910    2.275811

 Total Charge           Charge          ....    0
 Multiplicity           Mult            ....    1
 Number of Electrons    NEL             ....  138
 Basis Dimension        Dim             ....  317

ORBITAL ENERGIES
----------------

  NO   OCC          E(Eh)            E(eV)
   0   2.0000    -104.799110     -2851.7288
   1   2.0000    -104.797314     -2851.6799
   2   2.0000     -20.558172      -559.4163
   3   2.0000     -15.555738      -423.2931
   4   2.0000     -11.313599      -307.8587
   5   2.0000     -11.310694      -307.7796
   6   2.0000     -11.283927      -307.0513
   7   2.0000     -11.283332      -307.0351
   8   2.0000     -11.263954      -306.5078
   9   2.0000     -11.261885      -306.4515
  10   2.0000     -11.260836      -306.4229
  11   2.0000     -11.259651      -306.3907
  12   2.0000     -11.259635      -306.3902
  13   2.0000     -11.252078      -306.1846
  14   2.0000     -11.245517      -306.0061
  15   2.0000     -11.225410      -305.4589
  16   2.0000     -10.562680      -287.4251
  17   2.0000     -10.560913      -287.3771
  18   2.0000      -8.037807      -218.7198
  19   2.0000      -8.036046      -218.6719
  20   2.0000      -8.034123      -218.6196
  21   2.0000      -8.034080      -218.6184
  22   2.0000      -8.032364      -218.5717
  23   2.0000      -8.032313      -218.5704
  24   2.0000      -1.346831       -36.6491
  25   2.0000      -1.216367       -33.0990
  26   2.0000      -1.207572       -32.8597
  27   2.0000      -1.133770       -30.8515
  28   2.0000      -1.124258       -30.5926
  29   2.0000      -1.059172       -28.8215
  30   2.0000      -1.010866       -27.5071
  31   2.0000      -0.993125       -27.0243
  32   2.0000      -0.956495       -26.0276
  33   2.0000      -0.916110       -24.9286
  34   2.0000      -0.911098       -24.7922
  35   2.0000      -0.870256       -23.6809
  36   2.0000      -0.842507       -22.9258
  37   2.0000      -0.798089       -21.7171
  38   2.0000      -0.751707       -20.4550
  39   2.0000      -0.696809       -18.9611
  40   2.0000      -0.685837       -18.6626
  41   2.0000      -0.683575       -18.6010
  42   2.0000      -0.665195       -18.1009
  43   2.0000      -0.647092       -17.6083
  44   2.0000      -0.637296       -17.3417
  45   2.0000      -0.621775       -16.9193
  46   2.0000      -0.606107       -16.4930
  47   2.0000      -0.603365       -16.4184
  48   2.0000      -0.593839       -16.1592
  49   2.0000      -0.575519       -15.6607
  50   2.0000      -0.570299       -15.5186
  51   2.0000      -0.562206       -15.2984
  52   2.0000      -0.551683       -15.0121
  53   2.0000      -0.546545       -14.8722
  54   2.0000      -0.541136       -14.7251
  55   2.0000      -0.531103       -14.4520
  56   2.0000      -0.516434       -14.0529
  57   2.0000      -0.512099       -13.9349
  58   2.0000      -0.502002       -13.6602
  59   2.0000      -0.489682       -13.3249
  60   2.0000      -0.486756       -13.2453
  61   2.0000      -0.482408       -13.1270
  62   2.0000      -0.464441       -12.6381
  63   2.0000      -0.460141       -12.5211
  64   2.0000      -0.444554       -12.0969
  65   2.0000      -0.443060       -12.0563
  66   2.0000      -0.354951        -9.6587
  67   2.0000      -0.347012        -9.4427
  68   2.0000      -0.330576        -8.9954
  69   0.0000       0.108457         2.9513
  70   0.0000       0.111076         3.0225
  71   0.0000       0.156529         4.2594
  72   0.0000       0.175844         4.7850
  73   0.0000       0.188406         5.1268

MULLIKEN ATOMIC CHARGES
-----------------------
   0 C :    0.162626
   1 N :   -0.649221
   2 C :    0.167396
   3 C :   -0.224720
   4 C :    0.075987
   5 C :    0.365542
   6 O :   -0.470622
   7 C :    0.129115
   8 C :   -0.167052
   9 C :   -0.023322
  10 C :    0.004671
  11 C :    0.022635
  12 Cl:   -0.108988
  13 C :    0.039337
  14 Cl:   -0.106853
  15 C :    0.013145
  16 H :    0.040992
  17 H :    0.037751
  18 H :   -0.013019
  19 H :    0.032056
  20 H :   -0.009127
  21 H :    0.039988
  22 H :    0.041324
  23 H :    0.024945
  24 H :    0.037202
  25 H :    0.021275
  26 H :    0.041089
  27 H :    0.203576
  28 H :    0.057812
  29 H :    0.048661
  30 H :    0.068482
  31 H :    0.053370
  32 H :    0.043947
Sum of atomic charges:   -0.0000000

LOEWDIN ATOMIC CHARGES
----------------------
   0 C :    0.057748
   1 N :   -0.207824
   2 C :    0.055970
   3 C :    0.021061
   4 C :   -0.026242
   5 C :    0.117528
   6 O :   -0.197188
   7 C :   -0.000650
   8 C :   -0.020839
   9 C :   -0.016042
  10 C :   -0.026813
  11 C :   -0.136977
  12 Cl:    0.102285
  13 C :   -0.128565
  14 Cl:    0.103909
  15 C :   -0.030490
  16 H :    0.017190
  17 H :    0.013186
  18 H :   -0.015933
  19 H :    0.015320
  20 H :   -0.013536
  21 H :    0.014866
  22 H :    0.015980
  23 H :    0.013463
  24 H :    0.019487
  25 H :    0.002589
  26 H :    0.015457
  27 H :    0.076330
  28 H :    0.026709
  29 H :    0.025087
  30 H :    0.037941
  31 H :    0.036375
  32 H :    0.032619

  Mayer bond orders larger than 0.100000
B(  0-C ,  1-N ) :   0.9473 B(  0-C , 16-H ) :   0.9901 B(  0-C , 17-H ) :   0.9909
B(  0-C , 18-H ) :   0.9718 B(  1-N ,  2-C ) :   0.9420 B(  1-N ,  3-C ) :   0.8969
B(  2-C , 19-H ) :   0.9890 B(  2-C , 20-H ) :   0.9761 B(  2-C , 21-H ) :   0.9868
B(  3-C ,  4-C ) :   1.0012 B(  3-C ,  5-C ) :   0.9504 B(  3-C ,  7-C ) :   1.0095
B(  4-C , 22-H ) :   0.9796 B(  4-C , 23-H ) :   0.9801 B(  4-C , 24-H ) :   0.9806
B(  5-C ,  6-O ) :   0.8996 B(  5-C , 25-H ) :   0.9793 B(  5-C , 26-H ) :   0.9694
B(  6-O , 27-H ) :   0.9697 B(  7-C ,  8-C ) :   0.9967 B(  7-C , 28-H ) :   0.9637
B(  7-C , 29-H ) :   0.9690 B(  8-C ,  9-C ) :   1.4052 B(  8-C , 15-C ) :   1.4178
B(  9-C , 10-C ) :   1.4262 B(  9-C , 30-H ) :   0.9975 B( 10-C , 11-C ) :   1.4062
B( 10-C , 31-H ) :   1.0024 B( 11-C , 12-Cl) :   0.9909 B( 11-C , 13-C ) :   1.4471
B( 13-C , 14-Cl) :   0.9944 B( 13-C , 15-C ) :   1.4132 B( 15-C , 32-H ) :   1.0039

FINAL SINGLE POINT ENERGY     -1511.848955232309

DIPOLE MOMENT
-------------
                                X             Y             Z
Electronic contribution:     48.23538      11.54715       8.77495
Nuclear contribution   :    -49.87412     -11.91848      -9.08552
                        -----------------------------------------
Total Dipole Moment    :     -1.63874      -0.37133      -0.31057
                        -----------------------------------------
Magnitude (a.u.)       :      1.70874
Magnitude (Debye)      :      4.34328

Rotational constants in cm-1:     0.030220     0.006368     0.005719
Rotational constants in MHz :   905.984672   190.913134   171.451913

                             ****ORCA TERMINATED NORMALLY****
TOTAL RUN TIME: 0 days 0 hours 0 minutes 15 seconds 95 msec
