                         Program Version 5.0.3 -  RELEASE  -
|  1> !RHF def2-SVP TightSCF PAL16
|  2> *xyz 0 1
|  3> C 0.5348449944845324 0.0851845582923289 2.250495029378231
|  4> C 0.2301040742616641 -0.27303316704642183 0.7781301212800393
|  5> C -1.1039838012634484 0.33249032205121304 0.43125251884745114
|  6> N -2.269781710425576 -0.2418344295852543 0.24111504216890284
|  7> C -3.0993343302172858 0.8290789224538445 -0.021412350306922522
|  8> C -4.520766706840127 0.6614306944076072 -0.3066195116358108
|  9> C -5.0890221985071715 -0.6212135147220632 -0.3336630988307312
| 10> C -6.448855870717406 -0.7932180963755698 -0.6057729515358852
| 11> C -7.255883228975374 0.3151389904693621 -0.8538607145592604
| 12> C -6.70589009152633 1.5952363815409762 -0.8305708086152156
| 13> C -5.3458476147458756 1.7682125821282404 -0.5585899813136842
| 14> N -2.4731476444504414 2.0176849764858615 0.015834390547918437
| 15> O -1.1558484747910285 1.6925286755944384 0.31996284703768074
| 16> C 0.17212936952999439 -1.8065880664554614 0.6135482719178074
| 17> C 1.5294875051817032 -2.487381209816849 0.826405193421268
| 18> C 2.7350897222410113 -1.6083878784949437 0.47642662188848167
| 19> N 2.39336274925538 -0.6426739605867434 -0.5556003557615493
| 20> C 3.5429473197234356 -0.011143840383007935 -1.207910345709591
| 21> C 4.477976687150953 0.7891691759485535 -0.28596878454347524
| 22> C 5.609769566755479 1.4701506312580848 -1.059128368147113
| 23> C 6.579362978946688 0.5020722374330621 -1.5880399413388802
| 24> N 7.342688263240122 -0.2660401094908285 -2.003932093365247
| 25> C 1.3225446628481992 0.2955350657695489 -0.18222642534734368
| 26> H -0.24272296693753523 -0.307307808830703 2.9173698146847156
| 27> H 0.56393985242213 1.1718274714374755 2.396684174162178
| 28> H 1.4915622306188536 -0.3108960059020298 2.5980949976203433
| 29> H -4.4732660464071605 -1.49838942530738 -0.1429031420728675
| 30> H -6.875600618826256 -1.7928300059475621 -0.6240120103360278
| 31> H -8.31365777681811 0.1812580082064691 -1.0658262608570026
| 32> H -7.3341602430668065 2.4610032938408897 -1.0242819462985486
| 33> H -4.937044344190287 2.7767340678059504 -0.5456251671946922
| 34> H -0.5675293019157819 -2.2531432498984816 1.2909734695303001
| 35> H -0.1743695179927074 -2.047472464049159 -0.40207620195245575
| 36> H 1.620132158910755 -2.8064745359895555 1.8719565530955091
| 37> H 1.5520130378758206 -3.403902734421225 0.2234361806597397
| 38> H 3.110138637729986 -1.105777803588944 1.3748325537823067
| 39> H 3.5432222404433276 -2.26873406460172 0.13741133330632538
| 40> H 4.116727537629613 -0.7984991355628713 -1.7125556552740375
| 41> H 3.1800042971084324 0.6401701841086274 -2.0136187431007784
| 42> H 3.910264861854004 1.5688944690194877 0.2338262588606879
| 43> H 4.904478520988617 0.13532467498643463 0.48439282306136133
| 44> H 5.198880319937496 2.0757879092805678 -1.8747931413885912
| 45> H 6.131359746255994 2.159602502286123 -0.3848014838994036
| 46> H 0.8551962982005452 0.6159728539313907 -1.1233835944974053
| 47> H 1.7384848550195215 1.2044528583190788 0.26935384587071765
| 48> *
| 49>
| 50>                          ****END OF INPUT****

CARTESIAN COORDINATES (ANGSTROEM)
---------------------------------
  C      0.534845    0.085185    2.250495
  C      0.230104   -0.273033    0.778130
  C     -1.103984    0.332490    0.431253
  N     -2.269782   -0.241834    0.241115
  C     -3.099334    0.829079   -0.021412
  C     -4.520767    0.661431   -0.306620
  C     -5.089022   -0.621214   -0.333663
  C     -6.448856   -0.793218   -0.605773
  C     -7.255883    0.315139   -0.853861
  C     -6.705890    1.595236   -0.830571
  C     -5.345848    1.768213   -0.558590
  N     -2.473148    2.017685    0.015834
  O     -1.155848    1.692529    0.319963
  C      0.172129   -1.806588    0.613548
  C      1.529488   -2.487381    0.826405
  C      2.735090   -1.608388    0.476427
  N      2.393363   -0.642674   -0.555600
  C      3.542947   -0.011144   -1.207910
  C      4.477977    0.789169   -0.285969
  C      5.609770    1.470151   -1.059128
  C      6.579363    0.502072   -1.588040
  N      7.342688   -0.266040   -2.003932
  C      1.322545    0.295535   -0.182226
  H     -0.242723   -0.307308    2.917370
  H      0.563940    1.171827    2.396684
  H      1.491562   -0.310896    2.598095
  H     -4.473266   -1.498389   -0.142903
  H     -6.875601   -1.792830   -0.624012
  H     -8.313658    0.181258   -1.065826
  H     -7.334160    2.461003   -1.024282
  H     -4.937044    2.776734   -0.545625
  H     -0.567529   -2.253143    1.290973
  H     -0.174370   -2.047472   -0.402076
  H      1.620132   -2.806475    1.871957
  H      1.552013   -3.403903    0.223436
  H      3.110139   -1.105778    1.374833
  H      3.543222   -2.268734    0.137411
  H      4.116728   -0.798499   -1.712556
  H      3.180004    0.640170   -2.013619
  H      3.910265    1.568894    0.233826
  H      4.904479    0.135325    0.484393
  H      5.198880    2.075788   -1.874793
  H      6.131360    2.159603   -0.384801
  H      0.855196    0.615973   -1.123384
  H      1.738485    1.204453    0.269354

 Total Charge           Charge          ....    0
 Multiplicity           Mult            ....    1
 Number of Electrons    NEL             ....  166
 Basis Dimension        Dim             ....  432

ORBITAL ENERGIES
----------------

  NO   OCC          E(Eh)            E(eV)
   0   2.0000     -20.655083      -562.0534
   1   2.0000     -15.622744      -425.1165
   2   2.0000     -15.580354      -423.9630
   3   2.0000     -15.575314      -423.8258
   4   2.0000     -15.554772      -423.2669
   5   2.0000     -11.370584      -309.4093
   6   2.0000     -11.326911      -308.2209
   7   2.0000     -11.291009      -307.2440
   8   2.0000     -11.283200      -307.0315
   9   2.0000     -11.278630      -306.9071
  10   2.0000     -11.274102      -306.7839
  11   2.0000     -11.271354      -306.7091
  12   2.0000     -11.261776      -306.4485
  13   2.0000     -11.259905      -306.3976
  14   2.0000     -11.255673      -306.2824
  15   2.0000     -11.253299      -306.2178
  16   2.0000     -11.253101      -306.2125
  17   2.0000     -11.251743      -306.1755
  18   2.0000     -11.246721      -306.0388
  19   2.0000     -11.246536      -306.0338
  20   2.0000     -11.245594      -306.0082
  21   2.0000     -11.237659      -305.7923
  22   2.0000     -11.232443      -305.6503
  23   2.0000      -1.504105       -40.9288
  24   2.0000      -1.248419       -33.9712
  25   2.0000      -1.234838       -33.6017
  26   2.0000      -1.207686       -32.8628
  27   2.0000      -1.170560       -31.8526
  28   2.0000      -1.144452       -31.1421
  29   2.0000      -1.101559       -29.9749
  30   2.0000      -1.079551       -29.3761
  31   2.0000      -1.037323       -28.2270
  32   2.0000      -1.025120       -27.8949
  33   2.0000      -1.013003       -27.5652
  34   2.0000      -0.965247       -26.2657
  35   2.0000      -0.947548       -25.7841
  36   2.0000      -0.890596       -24.2343
  37   2.0000      -0.887815       -24.1587
  38   2.0000      -0.875021       -23.8105
  39   2.0000      -0.842100       -22.9147
  40   2.0000      -0.826628       -22.4937
  41   2.0000      -0.803984       -21.8775
  42   2.0000      -0.788113       -21.4456
  43   2.0000      -0.743426       -20.2296
  44   2.0000      -0.717079       -19.5127
  45   2.0000      -0.710671       -19.3383
  46   2.0000      -0.695519       -18.9260
  47   2.0000      -0.688367       -18.7314
  48   2.0000      -0.672311       -18.2945
  49   2.0000      -0.669765       -18.2252
  50   2.0000      -0.651087       -17.7170
  51   2.0000      -0.647174       -17.6105
  52   2.0000      -0.639562       -17.4034
  53   2.0000      -0.625650       -17.0248
  54   2.0000      -0.617719       -16.8090
  55   2.0000      -0.598459       -16.2849
  56   2.0000      -0.598047       -16.2737
  57   2.0000      -0.596079       -16.2201
  58   2.0000      -0.591270       -16.0893
  59   2.0000      -0.578230       -15.7344
  60   2.0000      -0.569992       -15.5103
  61   2.0000      -0.554791       -15.0966
  62   2.0000      -0.552029       -15.0215
  63   2.0000      -0.542367       -14.7586
  64   2.0000      -0.536242       -14.5919
  65   2.0000      -0.529339       -14.4041
  66   2.0000      -0.526697       -14.3322
  67   2.0000      -0.523410       -14.2427
  68   2.0000      -0.519047       -14.1240
  69   2.0000      -0.511010       -13.9053
  70   2.0000      -0.508340       -13.8326
  71   2.0000      -0.497800       -13.5458
  72   2.0000      -0.479749       -13.0546
  73   2.0000      -0.472388       -12.8543
  74   2.0000      -0.470460       -12.8019
  75   2.0000      -0.463510       -12.6127
  76   2.0000      -0.461991       -12.5714
  77   2.0000      -0.460559       -12.5324
  78   2.0000      -0.457656       -12.4535
  79   2.0000      -0.406602       -11.0642
  80   2.0000      -0.354438        -9.6447
  81   2.0000      -0.345909        -9.4127
  82   2.0000      -0.333080        -9.0636
  83   0.0000       0.076965         2.0943
  84   0.0000       0.122419         3.3312
  85   0.0000       0.144248         3.9252
  86   0.0000       0.147346         4.0095
  87   0.0000       0.165394         4.5006

MULLIKEN ATOMIC CHARGES
-----------------------
   0 C :    0.064294
   1 C :   -0.609512
   2 C :    0.549318
   3 N :   -0.402147
   4 C :    0.289871
   5 C :   -0.179276
   6 C :    0.016511
   7 C :   -0.043756
   8 C :   -0.015459
   9 C :   -0.047253
  10 C :    0.021306
  11 N :   -0.087541
  12 O :   -0.406702
  13 C :    0.097190
  14 C :   -0.011597
  15 C :    0.176495
  16 N :   -0.676178
  17 C :    0.182958
  18 C :   -0.108563
  19 C :    0.046095
  20 C :   -0.138054
  21 N :   -0.139551
  22 C :    0.366122
  23 H :    0.046528
  24 H :    0.055372
  25 H :    0.047438
  26 H :    0.064250
  27 H :    0.045585
  28 H :    0.047493
  29 H :    0.046447
  30 H :    0.064972
  31 H :    0.049406
  32 H :    0.048576
  33 H :    0.028232
  34 H :    0.040680
  35 H :    0.004926
  36 H :    0.038354
  37 H :    0.055555
  38 H :    0.027616
  39 H :    0.049908
  40 H :    0.061409
  41 H :    0.085354
  42 H :    0.087957
  43 H :    0.041279
  44 H :    0.018090
Sum of atomic charges:    0.0000000

LOEWDIN ATOMIC CHARGES
----------------------
   0 C :   -0.011681
   1 C :   -0.074249
   2 C :    0.188268
   3 N :   -0.202200
   4 C :    0.069265
   5 C :   -0.069443
   6 C :    0.013231
   7 C :   -0.031346
   8 C :   -0.005023
   9 C :   -0.030329
  10 C :    0.017468
  11 N :   -0.102476
  12 O :   -0.091473
  13 C :    0.002496
  14 C :   -0.019887
  15 C :    0.059383
  16 N :   -0.196909
  17 C :    0.065733
  18 C :   -0.023986
  19 C :   -0.027094
  20 C :   -0.005734
  21 N :   -0.115180
  22 C :    0.089579
  23 H :    0.023740
  24 H :    0.023461
  25 H :    0.020923
  26 H :    0.036612
  27 H :    0.029282
  28 H :    0.029349
  29 H :    0.029653
  30 H :    0.037914
  31 H :    0.022613
  32 H :    0.023587
  33 H :    0.013435
  34 H :    0.022681
  35 H :   -0.015627
  36 H :    0.017693
  37 H :    0.019842
  38 H :    0.013217
  39 H :    0.019188
  40 H :    0.022962
  41 H :    0.046964
  42 H :    0.050493
  43 H :    0.015893
  44 H :   -0.002289

  Mayer bond orders larger than 0.100000
B(  0-C ,  1-C ) :   0.9827 B(  0-C , 23-H ) :   0.9823 B(  0-C , 24-H ) :   0.9790
B(  0-C , 25-H ) :   0.9896 B(  1-C ,  2-C ) :   0.9345 B(  1-C , 13-C ) :   0.9962
B(  1-C , 22-C ) :   0.9531 B(  2-C ,  3-N ) :   1.7017 B(  2-C , 12-O ) :   1.0703
B(  3-N ,  4-C ) :   1.2455 B(  4-C ,  5-C ) :   1.0593 B(  4-C , 11-N ) :   1.7331
B(  5-C ,  6-C ) :   1.4059 B(  5-C , 10-C ) :   1.3917 B(  6-C ,  7-C ) :   1.4212
B(  6-C , 26-H ) :   0.9962 B(  7-C ,  8-C ) :   1.4112 B(  7-C , 27-H ) :   1.0004
B(  8-C ,  9-C ) :   1.4000 B(  8-C , 28-H ) :   0.9988 B(  9-C , 10-C ) :   1.4371
B(  9-C , 29-H ) :   0.9999 B( 10-C , 30-H ) :   0.9973 B( 11-N , 12-O ) :   0.8850
B( 13-C , 14-C ) :   1.0405 B( 13-C , 31-H ) :   0.9720 B( 13-C , 32-H ) :   0.9669
B( 14-C , 15-C ) :   1.0431 B( 14-C , 33-H ) :   0.9731 B( 14-C , 34-H ) :   0.9738
B( 15-C , 16-N ) :   0.9243 B( 15-C , 35-H ) :   0.9690 B( 15-C , 36-H ) :   0.9768
B( 16-N , 17-C ) :   0.9678 B( 16-N , 22-C ) :   0.9162 B( 17-C , 18-C ) :   0.9899
B( 17-C , 37-H ) :   0.9821 B( 17-C , 38-H ) :   0.9796 B( 18-C , 19-C ) :   1.0715
B( 18-C , 39-H ) :   0.9702 B( 18-C , 40-H ) :   0.9629 B( 19-C , 20-C ) :   0.9185
B( 19-C , 41-H ) :   0.9629 B( 19-C , 42-H ) :   0.9583 B( 20-C , 21-N ) :   3.0934
B( 22-C , 43-H ) :   0.9763 B( 22-C , 44-H ) :   0.9662

FINAL SINGLE POINT ENERGY      -986.295239410026

DIPOLE MOMENT
-------------
                                X             Y             Z
Electronic contribution:    -15.58650       6.78125      -5.38441
Nuclear contribution   :     14.69038      -6.55514       6.27814
                        -----------------------------------------
Total Dipole Moment    :     -0.89612       0.22611       0.89373
                        -----------------------------------------
Magnitude (a.u.)       :      1.28566
Magnitude (Debye)      :      3.26788

Rotational constants in cm-1:     0.023976     0.002934     0.002804
Rotational constants in MHz :   718.779214    87.944118    84.069510

                             ****ORCA TERMINATED NORMALLY****
TOTAL RUN TIME: 0 days 0 hours 0 minutes 28 seconds 35 msec
