                         Program Version 5.0.3 -  RELEASE  -
|  1> !RHF def2-SVP TightSCF PAL16
|  2> *xyz 0 1
|  3> C -4.309187132303385 1.0281589923887398 -2.3913950869215297
|  4> C -3.6364430834407937 1.841452842007841 -1.2968036110847305
|  5> C -3.6777005704809724 1.1338570485250432 0.02521748820517998
|  6> C -4.749487981649818 1.3143540930581064 0.9190350365395441
|  7> C -4.803868731505119 0.6485670971430973 2.1474549020613276
|  8> C -3.7879486415111274 -0.23418473692848826 2.536577944894961
|  9> C -2.7099500631717772 -0.44539306104220777 1.6607413034972025
| 10> C -1.535738050184531 -1.2434111122156963 1.6776851153885195
| 11> C -0.8747584011685906 -1.0076708378749595 0.4869338479135414
| 12> C 0.3854950061468772 -1.5161926332125437 -0.12480189525485476
| 13> O 0.8112776203493782 -2.6618480437550365 0.6321341930113057
| 14> C 1.5016182030188265 -0.4426359481101779 -0.11154710354341338
| 15> N 2.74719780300004 -0.9739266655277076 -0.6850974044727562
| 16> C 3.974005471683298 -0.20817054753527908 -0.4196754048123307
| 17> C 3.8255829211705126 1.2783931294191029 -0.7797441225133507
| 18> C 5.066265003039678 -0.8220898207541116 -1.3148501795551104
| 19> C 4.412019209294614 -0.35131556381688034 1.0477917037422169
| 20> O -1.5772471222034867 -0.1071056825582601 -0.2587618658152158
| 21> C -2.6911576470966816 0.23460718670783876 0.44921720868011117
| 22> H -5.365298818186171 0.8661089036455814 -2.1675296633492076
| 23> H -3.8372710837010007 0.046960583594649774 -2.5148058603963923
| 24> H -4.240377225511937 1.5563417078319137 -3.347199748865026
| 25> H -4.123091257598722 2.8192649400916086 -1.210800830924113
| 26> H -2.594128053406174 2.0397670446228626 -1.5757962008167854
| 27> H -5.5625665324448486 1.9905459789698312 0.6512279248058424
| 28> H -5.648844993919089 0.8167722333228435 2.810952262119344
| 29> H -3.83868446784471 -0.7459252886460951 3.493010389671313
| 30> H -1.2196159673985294 -1.922791243922223 2.456846949272655
| 31> H 0.19056666870368388 -1.8544576659980145 -1.1497075993576504
| 32> H 1.1346303576266434 -2.328319567284766 1.486156466756352
| 33> H 1.6645655570036373 -0.13378411127734588 0.9264936269599048
| 34> H 1.174100607570333 0.4350072382152214 -0.681137814992465
| 35> H 2.8596066285542543 -1.9523837619647517 -0.40845100002871915
| 36> H 3.4859752444449907 1.4086657015095718 -1.8145502220146086
| 37> H 3.1119989559881818 1.7874867419946636 -0.1236401216922067
| 38> H 4.783993657997436 1.8027613638495257 -0.680077515523294
| 39> H 5.244639109773453 -1.8733817735278528 -1.0649965398166807
| 40> H 4.791813972326134 -0.771361585898735 -2.3745952084651476
| 41> H 6.019303341234931 -0.2926107439776873 -1.1952846492247209
| 42> H 5.386911985622557 0.12255189757815149 1.210652649776864
| 43> H 3.704279363271605 0.1216226505124141 1.7371004146147802
| 44> H 4.507519136906557 -1.404286979159914 1.3360202215280832
| 45> *
| 46>
| 47>                          ****END OF INPUT****

CARTESIAN COORDINATES (ANGSTROEM)
---------------------------------
  C     -4.309187    1.028159   -2.391395
  C     -3.636443    1.841453   -1.296804
  C     -3.677701    1.133857    0.025217
  C     -4.749488    1.314354    0.919035
  C     -4.803869    0.648567    2.147455
  C     -3.787949   -0.234185    2.536578
  C     -2.709950   -0.445393    1.660741
  C     -1.535738   -1.243411    1.677685
  C     -0.874758   -1.007671    0.486934
  C      0.385495   -1.516193   -0.124802
  O      0.811278   -2.661848    0.632134
  C      1.501618   -0.442636   -0.111547
  N      2.747198   -0.973927   -0.685097
  C      3.974005   -0.208171   -0.419675
  C      3.825583    1.278393   -0.779744
  C      5.066265   -0.822090   -1.314850
  C      4.412019   -0.351316    1.047792
  O     -1.577247   -0.107106   -0.258762
  C     -2.691158    0.234607    0.449217
  H     -5.365299    0.866109   -2.167530
  H     -3.837271    0.046961   -2.514806
  H     -4.240377    1.556342   -3.347200
  H     -4.123091    2.819265   -1.210801
  H     -2.594128    2.039767   -1.575796
  H     -5.562567    1.990546    0.651228
  H     -5.648845    0.816772    2.810952
  H     -3.838684   -0.745925    3.493010
  H     -1.219616   -1.922791    2.456847
  H      0.190567   -1.854458   -1.149708
  H      1.134630   -2.328320    1.486156
  H      1.664566   -0.133784    0.926494
  H      1.174101    0.435007   -0.681138
  H      2.859607   -1.952384   -0.408451
  H      3.485975    1.408666   -1.814550
  H      3.111999    1.787487   -0.123640
  H      4.783994    1.802761   -0.680078
  H      5.244639   -1.873382   -1.064997
  H      4.791814   -0.771362   -2.374595
  H      6.019303   -0.292611   -1.195285
  H      5.386912    0.122552    1.210653
  H      3.704279    0.121623    1.737100
  H      4.507519   -1.404287    1.336020

 Total Charge           Charge          ....    0
 Multiplicity           Mult            ....    1
 Number of Electrons    NEL             ....  142
 Basis Dimension        Dim             ....  381

ORBITAL ENERGIES
----------------

  NO   OCC          E(Eh)            E(eV)
   0   2.0000     -20.616796      -561.0115
   1   2.0000     -20.566980      -559.6560
   2   2.0000     -15.536222      -422.7621
   3   2.0000     -11.309136      -307.7372
   4   2.0000     -11.306574      -307.6675
   5   2.0000     -11.290354      -307.2261
   6   2.0000     -11.264123      -306.5124
   7   2.0000     -11.263613      -306.4985
   8   2.0000     -11.245615      -306.0087
   9   2.0000     -11.240556      -305.8711
  10   2.0000     -11.238749      -305.8219
  11   2.0000     -11.237837      -305.7971
  12   2.0000     -11.236466      -305.7598
  13   2.0000     -11.235378      -305.7302
  14   2.0000     -11.231990      -305.6380
  15   2.0000     -11.222849      -305.3893
  16   2.0000     -11.221597      -305.3552
  17   2.0000     -11.220518      -305.3258
  18   2.0000     -11.216339      -305.2121
  19   2.0000      -1.452505       -39.5247
  20   2.0000      -1.356480       -36.9117
  21   2.0000      -1.198128       -32.6027
  22   2.0000      -1.147118       -31.2147
  23   2.0000      -1.087815       -29.6009
  24   2.0000      -1.058315       -28.7982
  25   2.0000      -1.036050       -28.1923
  26   2.0000      -1.020912       -27.7804
  27   2.0000      -0.971362       -26.4321
  28   2.0000      -0.950304       -25.8591
  29   2.0000      -0.928035       -25.2531
  30   2.0000      -0.923211       -25.1218
  31   2.0000      -0.869844       -23.6696
  32   2.0000      -0.850370       -23.1398
  33   2.0000      -0.819958       -22.3122
  34   2.0000      -0.796059       -21.6619
  35   2.0000      -0.779844       -21.2206
  36   2.0000      -0.750142       -20.4124
  37   2.0000      -0.710675       -19.3385
  38   2.0000      -0.698215       -18.9994
  39   2.0000      -0.677041       -18.4232
  40   2.0000      -0.661689       -18.0055
  41   2.0000      -0.649054       -17.6616
  42   2.0000      -0.645814       -17.5735
  43   2.0000      -0.631695       -17.1893
  44   2.0000      -0.617993       -16.8164
  45   2.0000      -0.613028       -16.6813
  46   2.0000      -0.607850       -16.5404
  47   2.0000      -0.602021       -16.3818
  48   2.0000      -0.584248       -15.8982
  49   2.0000      -0.577623       -15.7179
  50   2.0000      -0.575002       -15.6466
  51   2.0000      -0.566041       -15.4028
  52   2.0000      -0.561300       -15.2738
  53   2.0000      -0.546089       -14.8598
  54   2.0000      -0.532962       -14.5026
  55   2.0000      -0.528885       -14.3917
  56   2.0000      -0.525221       -14.2920
  57   2.0000      -0.517149       -14.0723
  58   2.0000      -0.515046       -14.0151
  59   2.0000      -0.510115       -13.8809
  60   2.0000      -0.502888       -13.6843
  61   2.0000      -0.484368       -13.1803
  62   2.0000      -0.482080       -13.1181
  63   2.0000      -0.480172       -13.0661
  64   2.0000      -0.476883       -12.9767
  65   2.0000      -0.469575       -12.7778
  66   2.0000      -0.459014       -12.4904
  67   2.0000      -0.399096       -10.8600
  68   2.0000      -0.362708        -9.8698
  69   2.0000      -0.320964        -8.7339
  70   2.0000      -0.293589        -7.9890
  71   0.0000       0.106923         2.9095
  72   0.0000       0.148976         4.0538
  73   0.0000       0.157047         4.2735
  74   0.0000       0.182088         4.9549
  75   0.0000       0.185001         5.0341

MULLIKEN ATOMIC CHARGES
-----------------------
   0 C :   -0.017472
   1 C :    0.058424
   2 C :   -0.235264
   3 C :   -0.033579
   4 C :   -0.036131
   5 C :   -0.020531
   6 C :   -0.061629
   7 C :   -0.079232
   8 C :    0.160247
   9 C :    0.323174
  10 O :   -0.475401
  11 C :    0.198774
  12 N :   -0.479114
  13 C :   -0.247638
  14 C :    0.036687
  15 C :    0.067106
  16 C :    0.051954
  17 O :   -0.487405
  18 C :    0.276517
  19 H :    0.027474
  20 H :    0.039404
  21 H :    0.032610
  22 H :    0.032005
  23 H :    0.043981
  24 H :    0.030550
  25 H :    0.037015
  26 H :    0.030162
  27 H :    0.032199
  28 H :    0.064336
  29 H :    0.200869
  30 H :   -0.008372
  31 H :    0.050967
  32 H :    0.137118
  33 H :    0.041326
  34 H :    0.029374
  35 H :    0.031830
  36 H :    0.019610
  37 H :    0.037673
  38 H :    0.020087
  39 H :    0.025804
  40 H :    0.023987
  41 H :    0.020504
Sum of atomic charges:    0.0000000

LOEWDIN ATOMIC CHARGES
----------------------
   0 C :   -0.027439
   1 C :   -0.009279
   2 C :   -0.041083
   3 C :   -0.033873
   4 C :   -0.033217
   5 C :   -0.027629
   6 C :   -0.054476
   7 C :   -0.083671
   8 C :    0.082171
   9 C :    0.112001
  10 O :   -0.182512
  11 C :    0.056521
  12 N :   -0.157998
  13 C :    0.004860
  14 C :   -0.025290
  15 C :   -0.022509
  16 C :   -0.036361
  17 O :   -0.108689
  18 C :    0.075758
  19 H :    0.015255
  20 H :    0.019994
  21 H :    0.015461
  22 H :    0.021189
  23 H :    0.023818
  24 H :    0.024874
  25 H :    0.026230
  26 H :    0.025374
  27 H :    0.027547
  28 H :    0.034852
  29 H :    0.082182
  30 H :   -0.010485
  31 H :    0.019550
  32 H :    0.052167
  33 H :    0.020923
  34 H :    0.013086
  35 H :    0.020098
  36 H :    0.011662
  37 H :    0.018767
  38 H :    0.012412
  39 H :    0.016585
  40 H :    0.009977
  41 H :    0.011197

  Mayer bond orders larger than 0.100000
B(  0-C ,  1-C ) :   1.0404 B(  0-C , 19-H ) :   0.9836 B(  0-C , 20-H ) :   0.9842
B(  0-C , 21-H ) :   0.9875 B(  1-C ,  2-C ) :   0.9757 B(  1-C , 22-H ) :   0.9689
B(  1-C , 23-H ) :   0.9729 B(  2-C ,  3-C ) :   1.4657 B(  2-C , 18-C ) :   1.4253
B(  3-C ,  4-C ) :   1.3802 B(  3-C , 24-H ) :   1.0014 B(  4-C ,  5-C ) :   1.4733
B(  4-C , 25-H ) :   1.0005 B(  5-C ,  6-C ) :   1.3129 B(  5-C , 26-H ) :   1.0052
B(  6-C ,  7-C ) :   1.1253 B(  6-C , 18-C ) :   1.3559 B(  7-C ,  8-C ) :   1.7407
B(  7-C , 27-H ) :   1.0097 B(  8-C ,  9-C ) :   0.9497 B(  8-C , 17-O ) :   0.9892
B(  9-C , 10-O ) :   0.8621 B(  9-C , 11-C ) :   1.0543 B(  9-C , 28-H ) :   0.9392
B( 10-O , 29-H ) :   0.9679 B( 11-C , 12-N ) :   0.9694 B( 11-C , 30-H ) :   0.9494
B( 11-C , 31-H ) :   0.9634 B( 12-N , 13-C ) :   0.9210 B( 12-N , 32-H ) :   0.9447
B( 13-C , 14-C ) :   1.0053 B( 13-C , 15-C ) :   1.0181 B( 13-C , 16-C ) :   0.9933
B( 14-C , 33-H ) :   0.9818 B( 14-C , 34-H ) :   0.9810 B( 14-C , 35-H ) :   0.9829
B( 15-C , 36-H ) :   0.9815 B( 15-C , 37-H ) :   0.9831 B( 15-C , 38-H ) :   0.9839
B( 16-C , 39-H ) :   0.9800 B( 16-C , 40-H ) :   0.9820 B( 16-C , 41-H ) :   0.9813
B( 17-O , 18-C ) :   0.9819

FINAL SINGLE POINT ENERGY      -822.832162690336

DIPOLE MOMENT
-------------
                                X             Y             Z
Electronic contribution:    -20.98912      -5.21314       8.29888
Nuclear contribution   :     21.29584       5.71157      -7.77032
                        -----------------------------------------
Total Dipole Moment    :      0.30672       0.49843       0.52855
                        -----------------------------------------
Magnitude (a.u.)       :      0.78860
Magnitude (Debye)      :      2.00445

Rotational constants in cm-1:     0.024278     0.005312     0.004837
Rotational constants in MHz :   727.835559   159.254475   145.006493

                             ****ORCA TERMINATED NORMALLY****
TOTAL RUN TIME: 0 days 0 hours 0 minutes 19 seconds 783 msec
