                         Program Version 5.0.3 -  RELEASE  -
|  1> !RHF def2-SVP TightSCF PAL16
|  2> *xyz 0 1
|  3> C -3.355472632077267 -0.22869728687049265 0.9982787445994287
|  4> C -2.9134175408414356 0.2503895448210215 -0.38460504281616165
|  5> C -4.119887723803078 0.8408339977539243 -1.1238052686358289
|  6> N -1.87470488954231 1.2830620810797224 -0.24367243177151943
|  7> C -0.5148411691024622 0.7934035276781515 -0.5625466696024736
|  8> C 0.08306005714212594 -0.2600709423174333 0.4050675332681577
|  9> O -0.44758190862066777 -1.5615231504998586 0.13133816615554567
| 10> C 1.5957942392069988 -0.32625022888970445 0.294168357998738
| 11> C 2.4031013416389673 0.1723228014892078 1.3287587157946605
| 12> C 3.7961801215073745 0.12242961763166806 1.2317281696373
| 13> C 4.384393073907464 -0.42582080721877413 0.09697141243280805
| 14> O 5.7392109790301555 -0.4943304426324686 -0.038653775856187206
| 15> C 3.604520008044654 -0.9226417166485495 -0.9394629022758647
| 16> C 2.213405236056187 -0.8722882687404078 -0.8432047548978753
| 17> H -4.139639392799469 -0.9885564602442153 0.9085384347465192
| 18> H -2.5307975174118904 -0.6756432000177944 1.5602665518029588
| 19> H -3.758777919635596 0.5958004552532944 1.5975587416056338
| 20> H -2.5609494651544256 -0.6008133953050816 -0.9783359871404935
| 21> H -4.911556487336869 0.09125343208600926 -1.2311735359982363
| 22> H -4.5410308955890875 1.6998406171382685 -0.5890494012674202
| 23> H -3.838990695565537 1.1714004651881438 -2.130072265964129
| 24> H -2.0749544588987328 2.0498859982066966 -0.8860163410741791
| 25> H 0.12990072587321605 1.6813576771768444 -0.5481558739958391
| 26> H -0.5044721633972667 0.4144939369662434 -1.5926865249509319
| 27> H -0.19153496475750423 -0.010270923569579895 1.436768030501189
| 28> H 0.14230356261592317 -2.200426904123396 0.5670123567551074
| 29> H 1.950685141469768 0.6069031095231102 2.2182027913884115
| 30> H 4.399123766125161 0.5145374873249617 2.0446574204142003
| 31> H 6.1498823139614105 -0.1081759345484289 0.7520522584649785
| 32> H 4.077376521436082 -1.3475525172327425 -1.8203539033771188
| 33> H 1.6096727365180432 -1.2648525704584135 -1.6595730059412448
| 34> *
| 35>
| 36>                          ****END OF INPUT****

CARTESIAN COORDINATES (ANGSTROEM)
---------------------------------
  C     -3.355473   -0.228697    0.998279
  C     -2.913418    0.250390   -0.384605
  C     -4.119888    0.840834   -1.123805
  N     -1.874705    1.283062   -0.243672
  C     -0.514841    0.793404   -0.562547
  C      0.083060   -0.260071    0.405068
  O     -0.447582   -1.561523    0.131338
  C      1.595794   -0.326250    0.294168
  C      2.403101    0.172323    1.328759
  C      3.796180    0.122430    1.231728
  C      4.384393   -0.425821    0.096971
  O      5.739211   -0.494330   -0.038654
  C      3.604520   -0.922642   -0.939463
  C      2.213405   -0.872288   -0.843205
  H     -4.139639   -0.988556    0.908538
  H     -2.530798   -0.675643    1.560267
  H     -3.758778    0.595800    1.597559
  H     -2.560949   -0.600813   -0.978336
  H     -4.911556    0.091253   -1.231174
  H     -4.541031    1.699841   -0.589049
  H     -3.838991    1.171400   -2.130072
  H     -2.074954    2.049886   -0.886016
  H      0.129901    1.681358   -0.548156
  H     -0.504472    0.414494   -1.592687
  H     -0.191535   -0.010271    1.436768
  H      0.142304   -2.200427    0.567012
  H      1.950685    0.606903    2.218203
  H      4.399124    0.514537    2.044657
  H      6.149882   -0.108176    0.752052
  H      4.077377   -1.347553   -1.820354
  H      1.609673   -1.264853   -1.659573

 Total Charge           Charge          ....    0
 Multiplicity           Mult            ....    1
 Number of Electrons    NEL             ....  106
 Basis Dimension        Dim             ....  281

ORBITAL ENERGIES
----------------

  NO   OCC          E(Eh)            E(eV)
   0   2.0000     -20.585500      -560.1599
   1   2.0000     -20.547362      -559.1222
   2   2.0000     -15.530437      -422.6047
   3   2.0000     -11.309056      -307.7351
   4   2.0000     -11.287279      -307.1425
   5   2.0000     -11.253703      -306.2288
   6   2.0000     -11.252289      -306.1904
   7   2.0000     -11.250437      -306.1400
   8   2.0000     -11.243465      -305.9502
   9   2.0000     -11.239454      -305.8411
  10   2.0000     -11.239382      -305.8391
  11   2.0000     -11.237853      -305.7975
  12   2.0000     -11.214153      -305.1526
  13   2.0000     -11.199186      -304.7453
  14   2.0000      -1.390434       -37.8356
  15   2.0000      -1.339444       -36.4481
  16   2.0000      -1.183727       -32.2108
  17   2.0000      -1.146608       -31.2008
  18   2.0000      -1.037436       -28.2301
  19   2.0000      -1.017277       -27.6815
  20   2.0000      -1.008114       -27.4322
  21   2.0000      -0.937016       -25.4975
  22   2.0000      -0.909195       -24.7404
  23   2.0000      -0.855373       -23.2759
  24   2.0000      -0.831914       -22.6375
  25   2.0000      -0.796901       -21.6848
  26   2.0000      -0.767031       -20.8720
  27   2.0000      -0.739295       -20.1172
  28   2.0000      -0.703833       -19.1523
  29   2.0000      -0.675047       -18.3690
  30   2.0000      -0.655625       -17.8405
  31   2.0000      -0.632890       -17.2218
  32   2.0000      -0.627549       -17.0765
  33   2.0000      -0.615671       -16.7533
  34   2.0000      -0.601139       -16.3578
  35   2.0000      -0.596598       -16.2343
  36   2.0000      -0.595103       -16.1936
  37   2.0000      -0.584658       -15.9093
  38   2.0000      -0.566744       -15.4219
  39   2.0000      -0.558144       -15.1879
  40   2.0000      -0.544201       -14.8085
  41   2.0000      -0.531475       -14.4622
  42   2.0000      -0.521239       -14.1836
  43   2.0000      -0.505221       -13.7477
  44   2.0000      -0.493491       -13.4286
  45   2.0000      -0.486380       -13.2351
  46   2.0000      -0.475818       -12.9477
  47   2.0000      -0.470017       -12.7898
  48   2.0000      -0.451216       -12.2782
  49   2.0000      -0.442293       -12.0354
  50   2.0000      -0.363509        -9.8916
  51   2.0000      -0.350723        -9.5437
  52   2.0000      -0.317431        -8.6377
  53   0.0000       0.117466         3.1964
  54   0.0000       0.138871         3.7789
  55   0.0000       0.173078         4.7097
  56   0.0000       0.179859         4.8942
  57   0.0000       0.191569         5.2128

MULLIKEN ATOMIC CHARGES
-----------------------
   0 C :    0.040180
   1 C :   -0.032468
   2 C :   -0.018692
   3 N :   -0.460647
   4 C :    0.193292
   5 C :    0.318812
   6 O :   -0.456150
   7 C :   -0.267659
   8 C :    0.015642
   9 C :   -0.122049
  10 C :    0.277588
  11 O :   -0.365784
  12 C :   -0.087665
  13 C :    0.027223
  14 H :    0.009775
  15 H :    0.029897
  16 H :    0.016130
  17 H :    0.039697
  18 H :    0.031365
  19 H :    0.030129
  20 H :    0.021247
  21 H :    0.122524
  22 H :    0.030037
  23 H :    0.015423
  24 H :    0.020647
  25 H :    0.198900
  26 H :    0.040443
  27 H :    0.024690
  28 H :    0.206693
  29 H :    0.048229
  30 H :    0.052549
Sum of atomic charges:   -0.0000000

LOEWDIN ATOMIC CHARGES
----------------------
   0 C :   -0.032492
   1 C :    0.036763
   2 C :   -0.038252
   3 N :   -0.163453
   4 C :    0.061632
   5 C :    0.114423
   6 O :   -0.194885
   7 C :   -0.084783
   8 C :    0.000716
   9 C :   -0.088332
  10 C :    0.095450
  11 O :   -0.120095
  12 C :   -0.056042
  13 C :    0.008547
  14 H :    0.009446
  15 H :    0.013269
  16 H :    0.012155
  17 H :    0.005339
  18 H :    0.018480
  19 H :    0.014855
  20 H :    0.009101
  21 H :    0.052220
  22 H :    0.016634
  23 H :   -0.000443
  24 H :    0.006540
  25 H :    0.083744
  26 H :    0.028921
  27 H :    0.023635
  28 H :    0.099698
  29 H :    0.034948
  30 H :    0.032256

  Mayer bond orders larger than 0.100000
B(  0-C ,  1-C ) :   1.0238 B(  0-C , 14-H ) :   0.9836 B(  0-C , 15-H ) :   0.9841
B(  0-C , 16-H ) :   0.9765 B(  1-C ,  2-C ) :   1.0380 B(  1-C ,  3-N ) :   0.9339
B(  1-C , 17-H ) :   0.9615 B(  2-C , 18-H ) :   0.9859 B(  2-C , 19-H ) :   0.9785
B(  2-C , 20-H ) :   0.9840 B(  3-N ,  4-C ) :   1.0045 B(  3-N , 21-H ) :   0.9601
B(  4-C ,  5-C ) :   1.0049 B(  4-C , 22-H ) :   0.9773 B(  4-C , 23-H ) :   0.9643
B(  5-C ,  6-O ) :   0.9059 B(  5-C ,  7-C ) :   1.0137 B(  5-C , 24-H ) :   0.9658
B(  6-O , 25-H ) :   0.9668 B(  7-C ,  8-C ) :   1.4436 B(  7-C , 13-C ) :   1.3757
B(  8-C ,  9-C ) :   1.4102 B(  8-C , 26-H ) :   0.9963 B(  9-C , 10-C ) :   1.3664
B(  9-C , 27-H ) :   1.0006 B( 10-C , 11-O ) :   1.0586 B( 10-C , 12-C ) :   1.3763
B( 11-O , 28-H ) :   0.9623 B( 12-C , 13-C ) :   1.4360 B( 12-C , 29-H ) :   1.0071
B( 13-C , 30-H ) :   1.0018

FINAL SINGLE POINT ENERGY      -630.132834684122

DIPOLE MOMENT
-------------
                                X             Y             Z
Electronic contribution:     21.45168      -3.17368       0.98915
Nuclear contribution   :    -20.83387       3.43403      -0.63468
                        -----------------------------------------
Total Dipole Moment    :      0.61781       0.26035       0.35447
                        -----------------------------------------
Magnitude (a.u.)       :      0.75837
Magnitude (Debye)      :      1.92761

Rotational constants in cm-1:     0.072925     0.008545     0.008455
Rotational constants in MHz :  2186.231865   256.176614   253.480007

                             ****ORCA TERMINATED NORMALLY****
TOTAL RUN TIME: 0 days 0 hours 0 minutes 10 seconds 58 msec
