                         Program Version 5.0.3 -  RELEASE  -
|  1> !RHF def2-SVP TightSCF PAL16
|  2> *xyz 0 1
|  3> N 2.633416156256788 2.0202377164702714 0.35031487411228257
|  4> C 2.5311314051667195 0.6598098580406723 0.370930144048118
|  5> O 2.981666948947121 0.017968178863294614 1.3063733910195405
|  6> N 1.8422234685220429 0.1830797473078499 -0.7062440195188229
|  7> C 1.6584208324232543 -1.1838814068822214 -0.8277874504330306
|  8> O 2.6148527227188283 -1.9547510014998306 -0.9218920182242211
|  9> C 0.20675089499503907 -1.6256540106887876 -1.0759474420574948
| 10> Cl -0.002416689733286149 -3.348915167477781 -0.6491825383947304
| 11> C -0.8403499450055897 -0.8010756026469699 -0.34896556750395874
| 12> C -1.8626120669983923 -0.16590149514159175 -1.0727240981438393
| 13> C -2.8141226357199973 0.6172491697906847 -0.4171023251845945
| 14> C -2.758844840392885 0.772416062919159 0.9663131484155827
| 15> C -1.7571107514684343 0.1397086048143553 1.6985118587346937
| 16> C -0.8053005825903797 -0.6456566666362228 1.047762391958663
| 17> H 3.2217939629184755 2.3626962120423305 1.1031739088357613
| 18> H 2.8636100234837154 2.4302544721803563 -0.545262733435159
| 19> H 1.039579538214316 0.7700143603446548 -0.8829106746888153
| 20> H 0.0484678501669702 -1.557964649547673 -2.1586467007448653
| 21> H -1.935955170217589 -0.28179395993237877 -2.1526488854977424
| 22> H -3.6063883717878262 1.1005793145980152 -0.9840388700009132
| 23> H -3.503867153746061 1.377803423778736 1.4768429736096962
| 24> H -1.719675839273701 0.25128723037376943 2.7797837701288097
| 25> H -0.03526975687942373 -1.1375103910708575 1.6433468629648036
| 26> *
| 27>
| 28>                          ****END OF INPUT****

CARTESIAN COORDINATES (ANGSTROEM)
---------------------------------
  N      2.633416    2.020238    0.350315
  C      2.531131    0.659810    0.370930
  O      2.981667    0.017968    1.306373
  N      1.842223    0.183080   -0.706244
  C      1.658421   -1.183881   -0.827787
  O      2.614853   -1.954751   -0.921892
  C      0.206751   -1.625654   -1.075947
  Cl    -0.002417   -3.348915   -0.649183
  C     -0.840350   -0.801076   -0.348966
  C     -1.862612   -0.165901   -1.072724
  C     -2.814123    0.617249   -0.417102
  C     -2.758845    0.772416    0.966313
  C     -1.757111    0.139709    1.698512
  C     -0.805301   -0.645657    1.047762
  H      3.221794    2.362696    1.103174
  H      2.863610    2.430254   -0.545263
  H      1.039580    0.770014   -0.882911
  H      0.048468   -1.557965   -2.158647
  H     -1.935955   -0.281794   -2.152649
  H     -3.606388    1.100579   -0.984039
  H     -3.503867    1.377803    1.476843
  H     -1.719676    0.251287    2.779784
  H     -0.035270   -1.137510    1.643347

 Total Charge           Charge          ....    0
 Multiplicity           Mult            ....    1
 Number of Electrons    NEL             ....  110
 Basis Dimension        Dim             ....  245

ORBITAL ENERGIES
----------------

  NO   OCC          E(Eh)            E(eV)
   0   2.0000    -104.788239     -2851.4330
   1   2.0000     -20.554608      -559.3193
   2   2.0000     -20.525875      -558.5375
   3   2.0000     -15.620336      -425.0510
   4   2.0000     -15.593475      -424.3200
   5   2.0000     -11.399275      -310.1901
   6   2.0000     -11.389548      -309.9254
   7   2.0000     -11.331328      -308.3411
   8   2.0000     -11.276896      -306.8599
   9   2.0000     -11.267986      -306.6175
  10   2.0000     -11.262881      -306.4786
  11   2.0000     -11.261648      -306.4450
  12   2.0000     -11.260449      -306.4124
  13   2.0000     -11.259342      -306.3823
  14   2.0000     -10.551534      -287.1218
  15   2.0000      -8.026567      -218.4140
  16   2.0000      -8.022845      -218.3127
  17   2.0000      -8.022803      -218.3116
  18   2.0000      -1.413175       -38.4544
  19   2.0000      -1.373945       -37.3869
  20   2.0000      -1.266650       -34.4673
  21   2.0000      -1.203170       -32.7399
  22   2.0000      -1.180509       -32.1233
  23   2.0000      -1.138390       -30.9772
  24   2.0000      -1.039895       -28.2970
  25   2.0000      -1.027658       -27.9640
  26   2.0000      -0.967215       -26.3192
  27   2.0000      -0.879717       -23.9383
  28   2.0000      -0.846007       -23.0210
  29   2.0000      -0.824292       -22.4301
  30   2.0000      -0.792717       -21.5709
  31   2.0000      -0.760174       -20.6854
  32   2.0000      -0.732733       -19.9387
  33   2.0000      -0.709189       -19.2980
  34   2.0000      -0.691393       -18.8137
  35   2.0000      -0.670390       -18.2422
  36   2.0000      -0.646002       -17.5786
  37   2.0000      -0.642579       -17.4855
  38   2.0000      -0.628345       -17.0981
  39   2.0000      -0.614134       -16.7114
  40   2.0000      -0.610509       -16.6128
  41   2.0000      -0.606661       -16.5081
  42   2.0000      -0.574412       -15.6305
  43   2.0000      -0.538658       -14.6576
  44   2.0000      -0.525726       -14.3057
  45   2.0000      -0.521560       -14.1924
  46   2.0000      -0.514850       -14.0098
  47   2.0000      -0.474427       -12.9098
  48   2.0000      -0.457694       -12.4545
  49   2.0000      -0.453988       -12.3536
  50   2.0000      -0.443442       -12.0667
  51   2.0000      -0.434795       -11.8314
  52   2.0000      -0.426596       -11.6083
  53   2.0000      -0.361673        -9.8416
  54   2.0000      -0.355077        -9.6621
  55   0.0000       0.093785         2.5520
  56   0.0000       0.107055         2.9131
  57   0.0000       0.122309         3.3282
  58   0.0000       0.161869         4.4047
  59   0.0000       0.171442         4.6652

MULLIKEN ATOMIC CHARGES
-----------------------
   0 N :   -0.306330
   1 C :    0.522160
   2 O :   -0.422280
   3 N :   -0.410181
   4 C :    0.470216
   5 O :   -0.341577
   6 C :    0.020113
   7 Cl:   -0.116654
   8 C :   -0.198295
   9 C :   -0.020844
  10 C :   -0.037037
  11 C :   -0.028557
  12 C :   -0.036714
  13 C :    0.009815
  14 H :    0.167431
  15 H :    0.155714
  16 H :    0.187334
  17 H :    0.112630
  18 H :    0.041732
  19 H :    0.049879
  20 H :    0.051663
  21 H :    0.056186
  22 H :    0.073597
Sum of atomic charges:    0.0000000

LOEWDIN ATOMIC CHARGES
----------------------
   0 N :   -0.071094
   1 C :    0.188513
   2 O :   -0.302065
   3 N :   -0.073814
   4 C :    0.181889
   5 O :   -0.220600
   6 C :   -0.072693
   7 Cl:    0.066953
   8 C :   -0.077645
   9 C :   -0.025193
  10 C :   -0.022113
  11 C :   -0.013947
  12 C :   -0.014291
  13 C :   -0.008008
  14 H :    0.089376
  15 H :    0.079304
  16 H :    0.089936
  17 H :    0.042660
  18 H :    0.027868
  19 H :    0.031081
  20 H :    0.031184
  21 H :    0.034136
  22 H :    0.038563

  Mayer bond orders larger than 0.100000
B(  0-N ,  1-C ) :   1.1447 B(  0-N , 14-H ) :   0.9557 B(  0-N , 15-H ) :   0.9524
B(  1-C ,  2-O ) :   1.9911 B(  1-C ,  3-N ) :   1.0258 B(  3-N ,  4-C ) :   1.0075
B(  3-N , 16-H ) :   0.9251 B(  4-C ,  5-O ) :   2.1055 B(  4-C ,  6-C ) :   0.8881
B(  6-C ,  7-Cl) :   1.0637 B(  6-C ,  8-C ) :   0.9476 B(  6-C , 17-H ) :   0.9560
B(  8-C ,  9-C ) :   1.4271 B(  8-C , 13-C ) :   1.3758 B(  9-C , 10-C ) :   1.4204
B(  9-C , 18-H ) :   1.0017 B( 10-C , 11-C ) :   1.4250 B( 10-C , 19-H ) :   0.9991
B( 11-C , 12-C ) :   1.3971 B( 11-C , 20-H ) :   0.9993 B( 12-C , 13-C ) :   1.4515
B( 12-C , 21-H ) :   1.0002 B( 13-C , 22-H ) :   0.9976

FINAL SINGLE POINT ENERGY     -1063.596631546880

DIPOLE MOMENT
-------------
                                X             Y             Z
Electronic contribution:      4.17350     -11.76560      -2.54500
Nuclear contribution   :     -5.68124      14.17809       1.72427
                        -----------------------------------------
Total Dipole Moment    :     -1.50774       2.41249      -0.82073
                        -----------------------------------------
Magnitude (a.u.)       :      2.96091
Magnitude (Debye)      :      7.52604

Rotational constants in cm-1:     0.023759     0.017773     0.012073
Rotational constants in MHz :   712.262982   532.829130   361.938253

                             ****ORCA TERMINATED NORMALLY****
TOTAL RUN TIME: 0 days 0 hours 0 minutes 8 seconds 86 msec
