                         Program Version 5.0.3 -  RELEASE  -
|  1> !RHF def2-SVP TightSCF PAL16
|  2> *xyz 0 1
|  3> C -3.0313032761819083 1.5966376654494232 0.3192509921026394
|  4> C -2.922791572439721 0.21112260914499267 -0.3202292238208845
|  5> C -4.225027958205199 -0.5621040011121117 -0.10247413720695601
|  6> N -1.831809680053003 -0.5835816204346159 0.2495576385650026
|  7> C -0.4968448201210708 -0.14518403671515148 -0.19281810970356142
|  8> C 0.6354425378598021 -1.0429133548044591 0.3732405994825008
|  9> O 0.5729184826388445 -2.3472427355216214 -0.2194314041441006
| 10> C 2.0000397581123446 -0.430946067500547 0.1100407235813137
| 11> C 2.663048301566469 -0.6941413637762964 -1.1047932670253509
| 12> C 3.9096904017318157 -0.1312102025586542 -1.3844529132686785
| 13> C 4.514357567214279 0.714434246870857 -0.4600897547818087
| 14> C 3.8681875470720115 1.00249830572786 0.7408905331565196
| 15> C 2.61830259725653 0.4400794319143222 1.0236712644516512
| 16> Cl 1.8755746303934326 0.8759703135060333 2.5226780662954518
| 17> H -3.144700673967975 1.5288299267765755 1.4070600197359246
| 18> H -2.1495400951358885 2.2091870325946967 0.10745988629439777
| 19> H -3.9013130544041905 2.1344015160631824 -0.07354684868406579
| 20> H -2.780416946377857 0.32150157619649633 -1.4022335592901372
| 21> H -4.177807040056363 -1.5509712120382155 -0.5725290129846987
| 22> H -4.438355710859063 -0.7032494028338098 0.9633406763735861
| 23> H -5.071396457546286 -0.026360722667218946 -0.5460759218068254
| 24> H -1.882643568586155 -0.5835028406461421 1.2669426757274498
| 25> H -0.3263995573201987 0.8895401824804088 0.12369399844128756
| 26> H -0.4594413962810424 -0.17674323041126436 -1.2889491927030423
| 27> H 0.4871951673766727 -1.1984691952542832 1.4472886704721748
| 28> H 1.2617646320751155 -2.8796928369241965 0.2117816370133395
| 29> H 2.201347777159073 -1.3438046995308084 -1.8483202964923902
| 30> H 4.404703035218416 -0.35181355674106746 -2.3273749330656894
| 31> H 5.484329294297959 1.154912999501688 -0.6766465542361021
| 32> H 4.342890077563937 1.6728152732440607 1.453516280482672
| 33> *
| 34>
| 35>                          ****END OF INPUT****

CARTESIAN COORDINATES (ANGSTROEM)
---------------------------------
  C     -3.031303    1.596638    0.319251
  C     -2.922792    0.211123   -0.320229
  C     -4.225028   -0.562104   -0.102474
  N     -1.831810   -0.583582    0.249558
  C     -0.496845   -0.145184   -0.192818
  C      0.635443   -1.042913    0.373241
  O      0.572918   -2.347243   -0.219431
  C      2.000040   -0.430946    0.110041
  C      2.663048   -0.694141   -1.104793
  C      3.909690   -0.131210   -1.384453
  C      4.514358    0.714434   -0.460090
  C      3.868188    1.002498    0.740891
  C      2.618303    0.440079    1.023671
  Cl     1.875575    0.875970    2.522678
  H     -3.144701    1.528830    1.407060
  H     -2.149540    2.209187    0.107460
  H     -3.901313    2.134402   -0.073547
  H     -2.780417    0.321502   -1.402234
  H     -4.177807   -1.550971   -0.572529
  H     -4.438356   -0.703249    0.963341
  H     -5.071396   -0.026361   -0.546076
  H     -1.882644   -0.583503    1.266943
  H     -0.326400    0.889540    0.123694
  H     -0.459441   -0.176743   -1.288949
  H      0.487195   -1.198469    1.447289
  H      1.261765   -2.879693    0.211782
  H      2.201348   -1.343805   -1.848320
  H      4.404703   -0.351814   -2.327375
  H      5.484329    1.154913   -0.676647
  H      4.342890    1.672815    1.453516

 Total Charge           Charge          ....    0
 Multiplicity           Mult            ....    1
 Number of Electrons    NEL             ....  114
 Basis Dimension        Dim             ....  280

ORBITAL ENERGIES
----------------

  NO   OCC          E(Eh)            E(eV)
   0   2.0000    -104.803087     -2851.8370
   1   2.0000     -20.547416      -559.1236
   2   2.0000     -15.529953      -422.5915
   3   2.0000     -11.307021      -307.6797
   4   2.0000     -11.293487      -307.3114
   5   2.0000     -11.260411      -306.4114
   6   2.0000     -11.256442      -306.3034
   7   2.0000     -11.254713      -306.2563
   8   2.0000     -11.252542      -306.1972
   9   2.0000     -11.251965      -306.1815
  10   2.0000     -11.250559      -306.1433
  11   2.0000     -11.249843      -306.1238
  12   2.0000     -11.215732      -305.1956
  13   2.0000     -11.210187      -305.0447
  14   2.0000     -10.566650      -287.5332
  15   2.0000      -8.041754      -218.8272
  16   2.0000      -8.038234      -218.7315
  17   2.0000      -8.038155      -218.7293
  18   2.0000      -1.338863       -36.4323
  19   2.0000      -1.191282       -32.4164
  20   2.0000      -1.186521       -32.2869
  21   2.0000      -1.117860       -30.4185
  22   2.0000      -1.048962       -28.5437
  23   2.0000      -1.018219       -27.7072
  24   2.0000      -0.992983       -27.0205
  25   2.0000      -0.942070       -25.6350
  26   2.0000      -0.916507       -24.9394
  27   2.0000      -0.851268       -23.1642
  28   2.0000      -0.821354       -22.3502
  29   2.0000      -0.794694       -21.6247
  30   2.0000      -0.781944       -21.2778
  31   2.0000      -0.710119       -19.3233
  32   2.0000      -0.694976       -18.9113
  33   2.0000      -0.661890       -18.0109
  34   2.0000      -0.645189       -17.5565
  35   2.0000      -0.636290       -17.3143
  36   2.0000      -0.623148       -16.9567
  37   2.0000      -0.605383       -16.4733
  38   2.0000      -0.593345       -16.1457
  39   2.0000      -0.591758       -16.1026
  40   2.0000      -0.586033       -15.9468
  41   2.0000      -0.554427       -15.0867
  42   2.0000      -0.545234       -14.8366
  43   2.0000      -0.537638       -14.6299
  44   2.0000      -0.530800       -14.4438
  45   2.0000      -0.524737       -14.2788
  46   2.0000      -0.517985       -14.0951
  47   2.0000      -0.506906       -13.7936
  48   2.0000      -0.485155       -13.2017
  49   2.0000      -0.479004       -13.0344
  50   2.0000      -0.473511       -12.8849
  51   2.0000      -0.468104       -12.7378
  52   2.0000      -0.462975       -12.5982
  53   2.0000      -0.441988       -12.0271
  54   2.0000      -0.357470        -9.7273
  55   2.0000      -0.346438        -9.4271
  56   2.0000      -0.337920        -9.1953
  57   0.0000       0.115015         3.1297
  58   0.0000       0.115263         3.1365
  59   0.0000       0.176176         4.7940
  60   0.0000       0.180149         4.9021
  61   0.0000       0.190324         5.1790

MULLIKEN ATOMIC CHARGES
-----------------------
   0 C :   -0.005222
   1 C :   -0.030288
   2 C :    0.028394
   3 N :   -0.484992
   4 C :    0.237083
   5 C :    0.338989
   6 O :   -0.453080
   7 C :   -0.252803
   8 C :   -0.010956
   9 C :   -0.028690
  10 C :   -0.029071
  11 C :   -0.003277
  12 C :    0.057757
  13 Cl:   -0.137812
  14 H :    0.019164
  15 H :    0.032176
  16 H :    0.025563
  17 H :    0.031464
  18 H :    0.042674
  19 H :    0.014532
  20 H :    0.018350
  21 H :    0.120599
  22 H :    0.016148
  23 H :    0.028433
  24 H :    0.027631
  25 H :    0.193721
  26 H :    0.061330
  27 H :    0.047058
  28 H :    0.049365
  29 H :    0.045760
Sum of atomic charges:    0.0000000

LOEWDIN ATOMIC CHARGES
----------------------
   0 C :   -0.045187
   1 C :    0.036775
   2 C :   -0.032107
   3 N :   -0.154521
   4 C :    0.067409
   5 C :    0.112367
   6 O :   -0.186603
   7 C :   -0.065574
   8 C :   -0.009341
   9 C :   -0.023526
  10 C :   -0.020975
  11 C :   -0.036286
  12 C :   -0.112493
  13 Cl:    0.095971
  14 H :    0.012461
  15 H :    0.012953
  16 H :    0.016071
  17 H :    0.012477
  18 H :    0.020601
  19 H :    0.011445
  20 H :    0.011458
  21 H :    0.048989
  22 H :   -0.003226
  23 H :    0.017905
  24 H :    0.001654
  25 H :    0.083393
  26 H :    0.035402
  27 H :    0.029800
  28 H :    0.030834
  29 H :    0.031874

  Mayer bond orders larger than 0.100000
B(  0-C ,  1-C ) :   1.0154 B(  0-C , 14-H ) :   0.9768 B(  0-C , 15-H ) :   0.9853
B(  0-C , 16-H ) :   0.9823 B(  1-C ,  2-C ) :   1.0365 B(  1-C ,  3-N ) :   0.9307
B(  1-C , 17-H ) :   0.9682 B(  2-C , 18-H ) :   0.9853 B(  2-C , 19-H ) :   0.9786
B(  2-C , 20-H ) :   0.9850 B(  3-N ,  4-C ) :   0.9578 B(  3-N , 21-H ) :   0.9528
B(  4-C ,  5-C ) :   1.0130 B(  4-C , 22-H ) :   0.9714 B(  4-C , 23-H ) :   0.9573
B(  5-C ,  6-O ) :   0.9055 B(  5-C ,  7-C ) :   0.9764 B(  5-C , 24-H ) :   0.9730
B(  6-O , 25-H ) :   0.9724 B(  7-C ,  8-C ) :   1.4184 B(  7-C , 12-C ) :   1.4399
B(  8-C ,  9-C ) :   1.4238 B(  8-C , 26-H ) :   0.9996 B(  9-C , 10-C ) :   1.3974
B(  9-C , 27-H ) :   1.0021 B( 10-C , 11-C ) :   1.4260 B( 10-C , 28-H ) :   0.9976
B( 11-C , 12-C ) :   1.4147 B( 11-C , 29-H ) :   1.0012 B( 12-C , 13-Cl) :   0.9658

FINAL SINGLE POINT ENERGY     -1014.103401216149

DIPOLE MOMENT
-------------
                                X             Y             Z
Electronic contribution:     22.61944       0.47673       9.84403
Nuclear contribution   :    -21.92321      -0.05313      -9.88084
                        -----------------------------------------
Total Dipole Moment    :      0.69623       0.42360      -0.03681
                        -----------------------------------------
Magnitude (a.u.)       :      0.81580
Magnitude (Debye)      :      2.07361

Rotational constants in cm-1:     0.033004     0.010203     0.008968
Rotational constants in MHz :   989.424905   305.864882   268.845599

                             ****ORCA TERMINATED NORMALLY****
TOTAL RUN TIME: 0 days 0 hours 0 minutes 10 seconds 6 msec
