                         Program Version 5.0.3 -  RELEASE  -
|  1> !RHF def2-SVP TightSCF PAL16
|  2> *xyz 0 1
|  3> C 2.0250111801106216 -2.5855736872858213 -0.6784896361975012
|  4> N 0.6909746882070251 -2.037161236429971 -0.9880182019456286
|  5> C -0.2006302118209407 -3.1681964755875334 -1.2692142523734518
|  6> C 0.19816396526466504 -1.1661551332389468 0.14054595077828225
|  7> C 1.1263732777385207 0.037093473545971624 0.33962955817918383
|  8> C 1.5677789512778761 0.3779295796060399 1.6304659338695098
|  9> C 2.429828155526865 1.4586267279355283 1.8324657471839696
| 10> C 2.8736675133008442 2.2077096773635145 0.7456402539955288
| 11> C 2.460523353687888 1.866396410154284 -0.5350278863911064
| 12> O 2.9279697778897487 2.6135055188017704 -1.5761827521775775
| 13> C 1.599779015504168 0.7920072417876833 -0.7469320004967007
| 14> C -1.3256749939765071 -0.7617776929053235 0.037524761033375924
| 15> C -1.7509186287448402 -0.03936687987588618 -1.2608406342868057
| 16> C -1.7559052452383805 1.4877869962488497 -1.2046025754245142
| 17> C -2.4538665292087125 2.02995324957802 0.03288017527587927
| 18> C -1.865894824221856 1.4358619051316956 1.3026135992268262
| 19> C -1.9453772915476808 -0.08846689010562189 1.2856873580122405
| 20> O -1.4070695333128997 -0.6315858225349036 2.4867257970639005
| 21> H 2.3828448658837345 -3.2076623435791007 -1.5075368290695148
| 22> H 2.7778936006257475 -1.8011745140881386 -0.5567687959553327
| 23> H 2.0156406511913794 -3.2002676985592937 0.22920660842969445
| 24> H -0.4048449051206534 -3.7662006108697876 -0.3738465345336333
| 25> H 0.23858416575225652 -3.8296486289556015 -2.0257996082986343
| 26> H -1.1489169724237245 -2.834961075228032 -1.7008621565563151
| 27> H 0.28133317765457194 -1.7879147243968543 1.0444414695924944
| 28> H 1.234030298416674 -0.1991427457798174 2.4908506541328976
| 29> H 2.756041746897442 1.7131748158353834 2.837021433203775
| 30> H 3.5452095455259665 3.0477345655297716 0.8949074119492314
| 31> H 2.5846588967498993 2.2298068870000813 -2.3999648671057874
| 32> H 1.2949104267898313 0.5189128734944845 -1.753492676653752
| 33> H -1.8454377561700341 -1.7309372245242638 0.012767635093758844
| 34> H -2.7789358953547536 -0.35550740635156064 -1.487528323902808
| 35> H -1.149599398357707 -0.36862229929612883 -2.114916176456257
| 36> H -2.2552122194313142 1.8768292484130003 -2.1001527806911833
| 37> H -0.7363658799727713 1.8772065817900727 -1.2381992070759866
| 38> H -2.3634395114307707 3.1217820181026985 0.05896915323752109
| 39> H -3.5253355665268202 1.8009562603229092 -0.01970599618475526
| 40> H -0.8356167036207185 1.7761956123777778 1.438387784931069
| 41> H -2.411314821375128 1.8204239586397006 2.1735218705393207
| 42> H -3.0122889960995605 -0.35205259377228854 1.2922737770351331
| 43> H -1.8385713700399455 -0.1775179182935685 3.2315549590133195
| 44> *
| 45>
| 46>                          ****END OF INPUT****

CARTESIAN COORDINATES (ANGSTROEM)
---------------------------------
  C      2.025011   -2.585574   -0.678490
  N      0.690975   -2.037161   -0.988018
  C     -0.200630   -3.168196   -1.269214
  C      0.198164   -1.166155    0.140546
  C      1.126373    0.037093    0.339630
  C      1.567779    0.377930    1.630466
  C      2.429828    1.458627    1.832466
  C      2.873668    2.207710    0.745640
  C      2.460523    1.866396   -0.535028
  O      2.927970    2.613506   -1.576183
  C      1.599779    0.792007   -0.746932
  C     -1.325675   -0.761778    0.037525
  C     -1.750919   -0.039367   -1.260841
  C     -1.755905    1.487787   -1.204603
  C     -2.453867    2.029953    0.032880
  C     -1.865895    1.435862    1.302614
  C     -1.945377   -0.088467    1.285687
  O     -1.407070   -0.631586    2.486726
  H      2.382845   -3.207662   -1.507537
  H      2.777894   -1.801175   -0.556769
  H      2.015641   -3.200268    0.229207
  H     -0.404845   -3.766201   -0.373847
  H      0.238584   -3.829649   -2.025800
  H     -1.148917   -2.834961   -1.700862
  H      0.281333   -1.787915    1.044441
  H      1.234030   -0.199143    2.490851
  H      2.756042    1.713175    2.837021
  H      3.545210    3.047735    0.894907
  H      2.584659    2.229807   -2.399965
  H      1.294910    0.518913   -1.753493
  H     -1.845438   -1.730937    0.012768
  H     -2.778936   -0.355507   -1.487528
  H     -1.149599   -0.368622   -2.114916
  H     -2.255212    1.876829   -2.100153
  H     -0.736366    1.877207   -1.238199
  H     -2.363440    3.121782    0.058969
  H     -3.525336    1.800956   -0.019706
  H     -0.835617    1.776196    1.438388
  H     -2.411315    1.820424    2.173522
  H     -3.012289   -0.352053    1.292274
  H     -1.838571   -0.177518    3.231555

 Total Charge           Charge          ....    0
 Multiplicity           Mult            ....    1
 Number of Electrons    NEL             ....  136
 Basis Dimension        Dim             ....  367

ORBITAL ENERGIES
----------------

  NO   OCC          E(Eh)            E(eV)
   0   2.0000     -20.574590      -559.8630
   1   2.0000     -20.547819      -559.1346
   2   2.0000     -15.547192      -423.0606
   3   2.0000     -11.295350      -307.3621
   4   2.0000     -11.280801      -306.9662
   5   2.0000     -11.263121      -306.4851
   6   2.0000     -11.247077      -306.0485
   7   2.0000     -11.242652      -305.9281
   8   2.0000     -11.240887      -305.8801
   9   2.0000     -11.236317      -305.7557
  10   2.0000     -11.234733      -305.7126
  11   2.0000     -11.225531      -305.4622
  12   2.0000     -11.222779      -305.3873
  13   2.0000     -11.222452      -305.3784
  14   2.0000     -11.219808      -305.3065
  15   2.0000     -11.219224      -305.2906
  16   2.0000     -11.216228      -305.2091
  17   2.0000     -11.215240      -305.1822
  18   2.0000      -1.379064       -37.5263
  19   2.0000      -1.339750       -36.4564
  20   2.0000      -1.204728       -32.7823
  21   2.0000      -1.130202       -30.7544
  22   2.0000      -1.102657       -30.0048
  23   2.0000      -1.031838       -28.0777
  24   2.0000      -1.000410       -27.2225
  25   2.0000      -0.989595       -26.9282
  26   2.0000      -0.981400       -26.7053
  27   2.0000      -0.931471       -25.3466
  28   2.0000      -0.917056       -24.9544
  29   2.0000      -0.841241       -22.8913
  30   2.0000      -0.834391       -22.7049
  31   2.0000      -0.818867       -22.2825
  32   2.0000      -0.808177       -21.9916
  33   2.0000      -0.772770       -21.0281
  34   2.0000      -0.727939       -19.8082
  35   2.0000      -0.717556       -19.5257
  36   2.0000      -0.690394       -18.7866
  37   2.0000      -0.673722       -18.3329
  38   2.0000      -0.658427       -17.9167
  39   2.0000      -0.643385       -17.5074
  40   2.0000      -0.637193       -17.3389
  41   2.0000      -0.620549       -16.8860
  42   2.0000      -0.613904       -16.7052
  43   2.0000      -0.610675       -16.6173
  44   2.0000      -0.594041       -16.1647
  45   2.0000      -0.590944       -16.0804
  46   2.0000      -0.583394       -15.8750
  47   2.0000      -0.575033       -15.6474
  48   2.0000      -0.565947       -15.4002
  49   2.0000      -0.552459       -15.0332
  50   2.0000      -0.547539       -14.8993
  51   2.0000      -0.539662       -14.6849
  52   2.0000      -0.530759       -14.4427
  53   2.0000      -0.520271       -14.1573
  54   2.0000      -0.517875       -14.0921
  55   2.0000      -0.503527       -13.7017
  56   2.0000      -0.500521       -13.6199
  57   2.0000      -0.488845       -13.3021
  58   2.0000      -0.487326       -13.2608
  59   2.0000      -0.478950       -13.0329
  60   2.0000      -0.467635       -12.7250
  61   2.0000      -0.456592       -12.4245
  62   2.0000      -0.442126       -12.0309
  63   2.0000      -0.432702       -11.7744
  64   2.0000      -0.414902       -11.2901
  65   2.0000      -0.355855        -9.6833
  66   2.0000      -0.328519        -8.9394
  67   2.0000      -0.305213        -8.3053
  68   0.0000       0.128939         3.5086
  69   0.0000       0.152876         4.1600
  70   0.0000       0.163911         4.4602
  71   0.0000       0.177619         4.8333
  72   0.0000       0.188442         5.1278

MULLIKEN ATOMIC CHARGES
-----------------------
   0 C :    0.152435
   1 N :   -0.639013
   2 C :    0.157156
   3 C :    0.301527
   4 C :   -0.180582
   5 C :   -0.048936
   6 C :    0.002814
   7 C :   -0.101549
   8 C :    0.292943
   9 O :   -0.370558
  10 C :   -0.098911
  11 C :   -0.207681
  12 C :   -0.006824
  13 C :   -0.026684
  14 C :   -0.052405
  15 C :   -0.040545
  16 C :    0.274075
  17 O :   -0.453362
  18 H :    0.028787
  19 H :    0.053978
  20 H :    0.003507
  21 H :    0.007299
  22 H :    0.029930
  23 H :    0.033434
  24 H :    0.032646
  25 H :    0.041235
  26 H :    0.038431
  27 H :    0.039642
  28 H :    0.204891
  29 H :    0.027872
  30 H :    0.043336
  31 H :    0.022166
  32 H :    0.047207
  33 H :    0.025326
  34 H :    0.038648
  35 H :    0.033780
  36 H :    0.017156
  37 H :    0.059917
  38 H :    0.012285
  39 H :    0.007252
  40 H :    0.197378
Sum of atomic charges:    0.0000000

LOEWDIN ATOMIC CHARGES
----------------------
   0 C :    0.056271
   1 N :   -0.208670
   2 C :    0.053501
   3 C :    0.080553
   4 C :   -0.009429
   5 C :   -0.055019
   6 C :   -0.004138
   7 C :   -0.068835
   8 C :    0.091814
   9 O :   -0.123395
  10 C :   -0.079705
  11 C :   -0.026948
  12 C :   -0.014753
  13 C :   -0.022551
  14 C :   -0.019752
  15 C :   -0.035915
  16 C :    0.110019
  17 O :   -0.191023
  18 H :    0.011878
  19 H :    0.016700
  20 H :   -0.006285
  21 H :   -0.005953
  22 H :    0.013850
  23 H :    0.009094
  24 H :    0.008295
  25 H :    0.025026
  26 H :    0.027410
  27 H :    0.030556
  28 H :    0.098391
  29 H :    0.022243
  30 H :    0.019741
  31 H :    0.013056
  32 H :    0.019670
  33 H :    0.013555
  34 H :    0.012249
  35 H :    0.017035
  36 H :    0.007186
  37 H :    0.022446
  38 H :    0.007429
  39 H :   -0.000322
  40 H :    0.084728

  Mayer bond orders larger than 0.100000
B(  0-C ,  1-N ) :   0.9379 B(  0-C , 18-H ) :   0.9919 B(  0-C , 19-H ) :   0.9884
B(  0-C , 20-H ) :   0.9756 B(  1-N ,  2-C ) :   0.9458 B(  1-N ,  3-C ) :   0.9338
B(  2-C , 21-H ) :   0.9763 B(  2-C , 22-H ) :   0.9906 B(  2-C , 23-H ) :   0.9886
B(  3-C ,  4-C ) :   0.9764 B(  3-C , 11-C ) :   1.0172 B(  3-C , 24-H ) :   0.9641
B(  4-C ,  5-C ) :   1.4472 B(  4-C , 10-C ) :   1.3903 B(  5-C ,  6-C ) :   1.4004
B(  5-C , 25-H ) :   0.9994 B(  6-C ,  7-C ) :   1.4123 B(  6-C , 26-H ) :   0.9998
B(  7-C ,  8-C ) :   1.3864 B(  7-C , 27-H ) :   1.0060 B(  8-C ,  9-O ) :   1.0542
B(  8-C , 10-C ) :   1.3547 B(  9-O , 28-H ) :   0.9636 B( 10-C , 29-H ) :   0.9997
B( 11-C , 12-C ) :   0.9880 B( 11-C , 16-C ) :   1.0052 B( 11-C , 30-H ) :   0.9571
B( 12-C , 13-C ) :   1.0256 B( 12-C , 31-H ) :   0.9728 B( 12-C , 32-H ) :   0.9715
B( 13-C , 14-C ) :   1.0311 B( 13-C , 33-H ) :   0.9733 B( 13-C , 34-H ) :   0.9683
B( 14-C , 15-C ) :   1.0240 B( 14-C , 35-H ) :   0.9730 B( 14-C , 36-H ) :   0.9723
B( 15-C , 16-C ) :   1.0134 B( 15-C , 37-H ) :   0.9622 B( 15-C , 38-H ) :   0.9666
B( 16-C , 17-O ) :   0.9220 B( 16-C , 39-H ) :   0.9740 B( 17-O , 40-H ) :   0.9658

FINAL SINGLE POINT ENERGY      -784.974456444950

DIPOLE MOMENT
-------------
                                X             Y             Z
Electronic contribution:      9.56894       7.30368       3.11923
Nuclear contribution   :    -10.44677      -7.55777      -3.11525
                        -----------------------------------------
Total Dipole Moment    :     -0.87783      -0.25408       0.00398
                        -----------------------------------------
Magnitude (a.u.)       :      0.91387
Magnitude (Debye)      :      2.32288

Rotational constants in cm-1:     0.015669     0.012621     0.010168
Rotational constants in MHz :   469.730969   378.356565   304.818906

                             ****ORCA TERMINATED NORMALLY****
TOTAL RUN TIME: 0 days 0 hours 0 minutes 25 seconds 118 msec
