                         Program Version 5.0.3 -  RELEASE  -
|  1> !RHF def2-SVP TightSCF PAL16
|  2> *xyz 0 1
|  3> C -6.5087316527036165 0.12642999718871262 -0.38542989108038905
|  4> C -5.058459545051461 -0.25675903303852765 -0.15129024286364806
|  5> O -4.239433167136858 0.8104452270206957 -0.6265127848095439
|  6> C -2.8871241137065526 0.6587580621658734 -0.5003364803204974
|  7> C -2.131909259698869 1.7321800185530891 -0.9718847020915502
|  8> C -0.7354783660272032 1.706815034727237 -0.9029156783502679
|  9> C -0.07010709568661493 0.6031193009555251 -0.35880505715844013
| 10> N 1.3386592435521665 0.6518946313795885 -0.32626383584121627
| 11> C 2.2059264188287875 -0.3037833857237585 0.1767009607225328
| 12> O 1.8982011546544104 -1.3634758229700665 0.7128815557621326
| 13> C 3.6574294314934734 0.11926048337144864 0.02295510746932265
| 14> C 4.615215518205866 -1.0071649479871774 0.4097555819640953
| 15> C 6.0544909820942845 -0.6377354284630194 0.07888785147653345
| 16> O 4.54450574965507 -1.2434941017691319 1.815306247380175
| 17> C -0.8280625413506556 -0.46973982188580155 0.11091595166929323
| 18> C -2.2288917142409823 -0.4429665483101789 0.04136753497765412
| 19> H -6.693488606131842 0.3040949643876339 -1.4500822135570568
| 20> H -6.7514140779660075 1.056226382306354 0.1397065162609939
| 21> H -7.181537720612471 -0.6621186774236395 -0.03688102150785704
| 22> H -4.838977288146289 -1.178887150959133 -0.7017526440747319
| 23> H -4.898154209653212 -0.4107964623785439 0.9220744503359938
| 24> H -2.635267429739874 2.597307578925083 -1.3967642387556487
| 25> H -0.18478077117076863 2.56381686713348 -1.280728323740044
| 26> H 1.757641353725905 1.493726780870549 -0.7019384115647417
| 27> H 3.81613085028783 0.9929096450180325 0.6665456911940931
| 28> H 3.822410168954962 0.4092614632265247 -1.0213265299816985
| 29> H 4.357505864048317 -1.9401842362929842 -0.10482420824325552
| 30> H 6.185220314152725 -0.4657342379560753 -0.9937854289096844
| 31> H 6.734954115877114 -1.4383037486373593 0.38886718629798783
| 32> H 6.3632087012359815 0.26365412187024234 0.6199717598364093
| 33> H 3.6525920753840144 -1.6131671693160268 1.9817918866102755
| 34> H -0.36353258399885047 -1.3516745163082147 0.5405676625431197
| 35> H -2.768741799128488 -1.3039152696805536 0.42157279492830935
| 36> *
| 37>
| 38>                          ****END OF INPUT****

CARTESIAN COORDINATES (ANGSTROEM)
---------------------------------
  C     -6.508732    0.126430   -0.385430
  C     -5.058460   -0.256759   -0.151290
  O     -4.239433    0.810445   -0.626513
  C     -2.887124    0.658758   -0.500336
  C     -2.131909    1.732180   -0.971885
  C     -0.735478    1.706815   -0.902916
  C     -0.070107    0.603119   -0.358805
  N      1.338659    0.651895   -0.326264
  C      2.205926   -0.303783    0.176701
  O      1.898201   -1.363476    0.712882
  C      3.657429    0.119260    0.022955
  C      4.615216   -1.007165    0.409756
  C      6.054491   -0.637735    0.078888
  O      4.544506   -1.243494    1.815306
  C     -0.828063   -0.469740    0.110916
  C     -2.228892   -0.442967    0.041368
  H     -6.693489    0.304095   -1.450082
  H     -6.751414    1.056226    0.139707
  H     -7.181538   -0.662119   -0.036881
  H     -4.838977   -1.178887   -0.701753
  H     -4.898154   -0.410796    0.922074
  H     -2.635267    2.597308   -1.396764
  H     -0.184781    2.563817   -1.280728
  H      1.757641    1.493727   -0.701938
  H      3.816131    0.992910    0.666546
  H      3.822410    0.409261   -1.021327
  H      4.357506   -1.940184   -0.104824
  H      6.185220   -0.465734   -0.993785
  H      6.734954   -1.438304    0.388867
  H      6.363209    0.263654    0.619972
  H      3.652592   -1.613167    1.981792
  H     -0.363533   -1.351675    0.540568
  H     -2.768742   -1.303915    0.421573

 Total Charge           Charge          ....    0
 Multiplicity           Mult            ....    1
 Number of Electrons    NEL             ....  120
 Basis Dimension        Dim             ....  309

ORBITAL ENERGIES
----------------

  NO   OCC          E(Eh)            E(eV)
   0   2.0000     -20.574444      -559.8591
   1   2.0000     -20.539286      -558.9024
   2   2.0000     -20.530921      -558.6748
   3   2.0000     -15.612338      -424.8333
   4   2.0000     -11.375177      -309.5343
   5   2.0000     -11.299202      -307.4669
   6   2.0000     -11.292147      -307.2749
   7   2.0000     -11.287420      -307.1463
   8   2.0000     -11.281955      -306.9976
   9   2.0000     -11.249298      -306.1090
  10   2.0000     -11.248776      -306.0947
  11   2.0000     -11.240829      -305.8785
  12   2.0000     -11.239261      -305.8359
  13   2.0000     -11.239148      -305.8328
  14   2.0000     -11.228444      -305.5415
  15   2.0000     -11.221495      -305.3524
  16   2.0000      -1.390339       -37.8331
  17   2.0000      -1.384436       -37.6724
  18   2.0000      -1.322756       -35.9940
  19   2.0000      -1.251513       -34.0554
  20   2.0000      -1.136905       -30.9367
  21   2.0000      -1.058277       -28.7972
  22   2.0000      -1.033501       -28.1230
  23   2.0000      -1.013449       -27.5774
  24   2.0000      -0.989254       -26.9190
  25   2.0000      -0.952426       -25.9168
  26   2.0000      -0.869376       -23.6569
  27   2.0000      -0.858043       -23.3485
  28   2.0000      -0.814927       -22.1753
  29   2.0000      -0.795081       -21.6352
  30   2.0000      -0.777969       -21.1696
  31   2.0000      -0.733872       -19.9697
  32   2.0000      -0.715773       -19.4772
  33   2.0000      -0.700629       -19.0651
  34   2.0000      -0.687886       -18.7183
  35   2.0000      -0.672495       -18.2995
  36   2.0000      -0.651416       -17.7259
  37   2.0000      -0.638800       -17.3826
  38   2.0000      -0.629250       -17.1228
  39   2.0000      -0.618871       -16.8403
  40   2.0000      -0.604748       -16.4560
  41   2.0000      -0.592531       -16.1236
  42   2.0000      -0.573685       -15.6108
  43   2.0000      -0.567065       -15.4306
  44   2.0000      -0.561799       -15.2873
  45   2.0000      -0.556745       -15.1498
  46   2.0000      -0.543409       -14.7869
  47   2.0000      -0.539946       -14.6927
  48   2.0000      -0.533394       -14.5144
  49   2.0000      -0.520439       -14.1619
  50   2.0000      -0.515712       -14.0332
  51   2.0000      -0.508114       -13.8265
  52   2.0000      -0.489398       -13.3172
  53   2.0000      -0.484925       -13.1955
  54   2.0000      -0.478785       -13.0284
  55   2.0000      -0.437948       -11.9172
  56   2.0000      -0.432598       -11.7716
  57   2.0000      -0.429154       -11.6779
  58   2.0000      -0.346521        -9.4293
  59   2.0000      -0.296686        -8.0732
  60   0.0000       0.120911         3.2902
  61   0.0000       0.134956         3.6723
  62   0.0000       0.157499         4.2858
  63   0.0000       0.178905         4.8682
  64   0.0000       0.183058         4.9813

MULLIKEN ATOMIC CHARGES
-----------------------
   0 C :   -0.031470
   1 C :    0.192724
   2 O :   -0.557208
   3 C :    0.319731
   4 C :   -0.064540
   5 C :   -0.053273
   6 C :    0.166024
   7 N :   -0.389462
   8 C :    0.464103
   9 O :   -0.471089
  10 C :   -0.102584
  11 C :    0.159851
  12 C :    0.011847
  13 O :   -0.483476
  14 C :   -0.050239
  15 C :   -0.126699
  16 H :    0.042622
  17 H :    0.042791
  18 H :    0.033153
  19 H :    0.031489
  20 H :    0.031892
  21 H :    0.047093
  22 H :    0.024774
  23 H :    0.161698
  24 H :    0.074817
  25 H :    0.053754
  26 H :    0.031854
  27 H :    0.021899
  28 H :    0.047349
  29 H :    0.030597
  30 H :    0.217740
  31 H :    0.079393
  32 H :    0.042845
Sum of atomic charges:   -0.0000000

LOEWDIN ATOMIC CHARGES
----------------------
   0 C :   -0.039110
   1 C :    0.128607
   2 O :   -0.200137
   3 C :    0.080335
   4 C :   -0.034450
   5 C :   -0.039514
   6 C :    0.025542
   7 N :   -0.056309
   8 C :    0.203490
   9 O :   -0.303627
  10 C :   -0.058337
  11 C :    0.108144
  12 C :   -0.034743
  13 O :   -0.208302
  14 C :   -0.023457
  15 C :   -0.065297
  16 H :    0.023128
  17 H :    0.023206
  18 H :    0.021586
  19 H :    0.005904
  20 H :    0.006111
  21 H :    0.034649
  22 H :    0.023336
  23 H :    0.088368
  24 H :    0.039451
  25 H :    0.028464
  26 H :    0.008238
  27 H :    0.014834
  28 H :    0.025648
  29 H :    0.019669
  30 H :    0.084803
  31 H :    0.040121
  32 H :    0.029651

  Mayer bond orders larger than 0.100000
B(  0-C ,  1-C ) :   1.0524 B(  0-C , 16-H ) :   0.9833 B(  0-C , 17-H ) :   0.9832
B(  0-C , 18-H ) :   0.9815 B(  1-C ,  2-O ) :   0.8595 B(  1-C , 19-H ) :   0.9729
B(  1-C , 20-H ) :   0.9729 B(  2-O ,  3-C ) :   0.9915 B(  3-C ,  4-C ) :   1.3946
B(  3-C , 15-C ) :   1.3624 B(  4-C ,  5-C ) :   1.4667 B(  4-C , 21-H ) :   1.0019
B(  5-C ,  6-C ) :   1.3558 B(  5-C , 22-H ) :   0.9996 B(  6-C ,  7-N ) :   0.9632
B(  6-C , 14-C ) :   1.4325 B(  7-N ,  8-C ) :   1.1447 B(  7-N , 23-H ) :   0.9348
B(  8-C ,  9-O ) :   1.8600 B(  8-C , 10-C ) :   0.9653 B( 10-C , 11-C ) :   0.9988
B( 10-C , 24-H ) :   0.9431 B( 10-C , 25-H ) :   0.9659 B( 11-C , 12-C ) :   1.0464
B( 11-C , 13-O ) :   0.9199 B( 11-C , 26-H ) :   0.9734 B( 12-C , 27-H ) :   0.9816
B( 12-C , 28-H ) :   0.9841 B( 12-C , 29-H ) :   0.9758 B( 13-O , 30-H ) :   0.9554
B( 14-C , 15-C ) :   1.3811 B( 14-C , 31-H ) :   0.9963 B( 15-C , 32-H ) :   1.0070

FINAL SINGLE POINT ENERGY      -742.811956670813

DIPOLE MOMENT
-------------
                                X             Y             Z
Electronic contribution:     -0.28743       1.49582       0.56321
Nuclear contribution   :     -0.13577      -0.78346      -1.47280
                        -----------------------------------------
Total Dipole Moment    :     -0.42320       0.71236      -0.90959
                        -----------------------------------------
Magnitude (a.u.)       :      1.23041
Magnitude (Debye)      :      3.12746

Rotational constants in cm-1:     0.070299     0.005329     0.005024
Rotational constants in MHz :  2107.506446   159.764915   150.610680

                             ****ORCA TERMINATED NORMALLY****
TOTAL RUN TIME: 0 days 0 hours 0 minutes 10 seconds 854 msec
