                         Program Version 5.0.3 -  RELEASE  -
|  1> !RHF def2-SVP TightSCF PAL16
|  2> *xyz 0 1
|  3> N 1.1429537600059148 -2.457809111108558 -1.8763897189069219
|  4> C -0.07041781449517363 -2.051881566962109 -1.3916885255112732
|  5> O -1.0482935227598034 -2.746146026594804 -1.6591597932158413
|  6> N -0.07100067761436096 -0.8293987136333398 -0.7092229124766771
|  7> C 1.1081894151373042 -0.3103160465055286 -0.06152289309580355
|  8> C 1.9297149710187076 -1.1844229902763934 0.6777429899030606
|  9> C 3.0572498977219547 -0.7162559130909771 1.3510121792562264
| 10> C 3.379220153407387 0.6329454411940053 1.2986960175162467
| 11> C 2.5763998015472227 1.5078092292630527 0.5668112378723171
| 12> C 1.434414890582798 1.062104451904967 -0.129123253113885
| 13> C 0.6576286048998062 2.040423716700564 -0.9625544862166351
| 14> O -0.11323197157302604 3.0324202391065085 -0.26482889580448415
| 15> C -0.847012424677589 2.0261523436705096 -0.9818079300338318
| 16> C -1.6302065378497 1.0303425088787679 -0.17338764184967664
| 17> C -2.801306529196045 1.4568433539219865 0.48617354606211266
| 18> C -3.6292013015142013 0.562872924799383 1.1639033650414008
| 19> C -3.3065993160495326 -0.7866550630675313 1.1904456546103857
| 20> C -2.1485929942294644 -1.2354727016016258 0.5551761125706196
| 21> C -1.292116594000599 -0.3415920890657781 -0.11547475557788503
| 22> H 1.789381403499918 -1.7318143327242879 -2.1512855770399
| 23> H 1.073379785963498 -3.24006260204258 -2.5143967642522087
| 24> H 1.6755521086320453 -2.239023021060329 0.7636585976286588
| 25> H 3.671746386714285 -1.4035516442014992 1.9267672919878716
| 26> H 4.25084466695749 1.008624393947839 1.8285941692620422
| 27> H 2.84072642366431 2.5638752691998534 0.5325564233084785
| 28> H 1.1403342871995847 2.3653957621955475 -1.8799134640430337
| 29> H -1.3120192155081236 2.341297746944299 -1.91191254797627
| 30> H -3.0742888360272325 2.5105280494093787 0.45611663325967
| 31> H -4.527314661715181 0.920659667933379 1.6602165153250372
| 32> H -3.9483841195600156 -1.4934115369853227 1.709765497644383
| 33> H -1.9077500401821395 -2.294481740148566 0.6150329278660452
| 34> *
| 35>
| 36>                          ****END OF INPUT****

CARTESIAN COORDINATES (ANGSTROEM)
---------------------------------
  N      1.142954   -2.457809   -1.876390
  C     -0.070418   -2.051882   -1.391689
  O     -1.048294   -2.746146   -1.659160
  N     -0.071001   -0.829399   -0.709223
  C      1.108189   -0.310316   -0.061523
  C      1.929715   -1.184423    0.677743
  C      3.057250   -0.716256    1.351012
  C      3.379220    0.632945    1.298696
  C      2.576400    1.507809    0.566811
  C      1.434415    1.062104   -0.129123
  C      0.657629    2.040424   -0.962554
  O     -0.113232    3.032420   -0.264829
  C     -0.847012    2.026152   -0.981808
  C     -1.630207    1.030343   -0.173388
  C     -2.801307    1.456843    0.486174
  C     -3.629201    0.562873    1.163903
  C     -3.306599   -0.786655    1.190446
  C     -2.148593   -1.235473    0.555176
  C     -1.292117   -0.341592   -0.115475
  H      1.789381   -1.731814   -2.151286
  H      1.073380   -3.240063   -2.514397
  H      1.675552   -2.239023    0.763659
  H      3.671746   -1.403552    1.926767
  H      4.250845    1.008624    1.828594
  H      2.840726    2.563875    0.532556
  H      1.140334    2.365396   -1.879913
  H     -1.312019    2.341298   -1.911913
  H     -3.074289    2.510528    0.456117
  H     -4.527315    0.920660    1.660217
  H     -3.948384   -1.493412    1.709765
  H     -1.907750   -2.294482    0.615033

 Total Charge           Charge          ....    0
 Multiplicity           Mult            ....    1
 Number of Electrons    NEL             ....  132
 Basis Dimension        Dim             ....  326

ORBITAL ENERGIES
----------------

  NO   OCC          E(Eh)            E(eV)
   0   2.0000     -20.573915      -559.8447
   1   2.0000     -20.512085      -558.1622
   2   2.0000     -15.612380      -424.8344
   3   2.0000     -15.582322      -424.0165
   4   2.0000     -11.392150      -309.9962
   5   2.0000     -11.308366      -307.7163
   6   2.0000     -11.306510      -307.6658
   7   2.0000     -11.303785      -307.5916
   8   2.0000     -11.292607      -307.2875
   9   2.0000     -11.265318      -306.5449
  10   2.0000     -11.256332      -306.3004
  11   2.0000     -11.255377      -306.2744
  12   2.0000     -11.255255      -306.2711
  13   2.0000     -11.254094      -306.2395
  14   2.0000     -11.251317      -306.1639
  15   2.0000     -11.245294      -306.0000
  16   2.0000     -11.241559      -305.8984
  17   2.0000     -11.240239      -305.8625
  18   2.0000     -11.239448      -305.8409
  19   2.0000      -1.405421       -38.2434
  20   2.0000      -1.382675       -37.6245
  21   2.0000      -1.269143       -34.5351
  22   2.0000      -1.193951       -32.4891
  23   2.0000      -1.156140       -31.4602
  24   2.0000      -1.132730       -30.8231
  25   2.0000      -1.043398       -28.3923
  26   2.0000      -1.030704       -28.0469
  27   2.0000      -1.020763       -27.7764
  28   2.0000      -0.992999       -27.0209
  29   2.0000      -0.922620       -25.1058
  30   2.0000      -0.891777       -24.2665
  31   2.0000      -0.872364       -23.7382
  32   2.0000      -0.831041       -22.6138
  33   2.0000      -0.820258       -22.3204
  34   2.0000      -0.796442       -21.6723
  35   2.0000      -0.777413       -21.1545
  36   2.0000      -0.744477       -20.2583
  37   2.0000      -0.718257       -19.5448
  38   2.0000      -0.714634       -19.4462
  39   2.0000      -0.690025       -18.7765
  40   2.0000      -0.680701       -18.5228
  41   2.0000      -0.667695       -18.1689
  42   2.0000      -0.647483       -17.6189
  43   2.0000      -0.638160       -17.3652
  44   2.0000      -0.633111       -17.2278
  45   2.0000      -0.618596       -16.8329
  46   2.0000      -0.608703       -16.5636
  47   2.0000      -0.598607       -16.2889
  48   2.0000      -0.586793       -15.9674
  49   2.0000      -0.579725       -15.7751
  50   2.0000      -0.574579       -15.6351
  51   2.0000      -0.545544       -14.8450
  52   2.0000      -0.537491       -14.6259
  53   2.0000      -0.525157       -14.2903
  54   2.0000      -0.515096       -14.0165
  55   2.0000      -0.502909       -13.6849
  56   2.0000      -0.497539       -13.5387
  57   2.0000      -0.465391       -12.6639
  58   2.0000      -0.449902       -12.2425
  59   2.0000      -0.442073       -12.0294
  60   2.0000      -0.436589       -11.8802
  61   2.0000      -0.417828       -11.3697
  62   2.0000      -0.353405        -9.6166
  63   2.0000      -0.340984        -9.2787
  64   2.0000      -0.335364        -9.1257
  65   2.0000      -0.329498        -8.9661
  66   0.0000       0.099570         2.7094
  67   0.0000       0.107633         2.9288
  68   0.0000       0.129299         3.5184
  69   0.0000       0.134171         3.6510
  70   0.0000       0.175386         4.7725

MULLIKEN ATOMIC CHARGES
-----------------------
   0 N :   -0.299828
   1 C :    0.588120
   2 O :   -0.453469
   3 N :   -0.641448
   4 C :    0.159558
   5 C :   -0.022890
   6 C :   -0.017461
   7 C :   -0.034594
   8 C :    0.002644
   9 C :   -0.128815
  10 C :    0.247354
  11 O :   -0.490337
  12 C :    0.257315
  13 C :   -0.143113
  14 C :   -0.002751
  15 C :   -0.034179
  16 C :   -0.023305
  17 C :   -0.002814
  18 C :    0.205376
  19 H :    0.160434
  20 H :    0.167381
  21 H :    0.049055
  22 H :    0.048820
  23 H :    0.047672
  24 H :    0.047623
  25 H :    0.063157
  26 H :    0.067528
  27 H :    0.042711
  28 H :    0.043254
  29 H :    0.045524
  30 H :    0.051475
Sum of atomic charges:    0.0000000

LOEWDIN ATOMIC CHARGES
----------------------
   0 N :   -0.064049
   1 C :    0.210606
   2 O :   -0.330134
   3 N :   -0.126226
   4 C :    0.039458
   5 C :   -0.022928
   6 C :   -0.015710
   7 C :   -0.024612
   8 C :   -0.000615
   9 C :   -0.050399
  10 C :    0.110306
  11 O :   -0.251957
  12 C :    0.117207
  13 C :   -0.053613
  14 C :   -0.005426
  15 C :   -0.026390
  16 C :   -0.016082
  17 C :   -0.008669
  18 C :    0.055167
  19 H :    0.076837
  20 H :    0.087498
  21 H :    0.033316
  22 H :    0.031410
  23 H :    0.030381
  24 H :    0.033908
  25 H :    0.021576
  26 H :    0.023716
  27 H :    0.031524
  28 H :    0.028408
  29 H :    0.030105
  30 H :    0.035388

  Mayer bond orders larger than 0.100000
B(  0-N ,  1-C ) :   1.1515 B(  0-N , 19-H ) :   0.9447 B(  0-N , 20-H ) :   0.9535
B(  1-C ,  2-O ) :   1.9490 B(  1-C ,  3-N ) :   1.0127 B(  3-N ,  4-C ) :   0.9024
B(  3-N , 18-C ) :   0.8780 B(  4-C ,  5-C ) :   1.4179 B(  4-C ,  9-C ) :   1.4631
B(  5-C ,  6-C ) :   1.4210 B(  5-C , 21-H ) :   0.9989 B(  6-C ,  7-C ) :   1.3914
B(  6-C , 22-H ) :   0.9965 B(  7-C ,  8-C ) :   1.4370 B(  7-C , 23-H ) :   1.0018
B(  8-C ,  9-C ) :   1.4276 B(  8-C , 24-H ) :   0.9989 B(  9-C , 10-C ) :   0.9426
B( 10-C , 11-O ) :   0.9115 B( 10-C , 12-C ) :   1.1040 B( 10-C , 25-H ) :   0.9548
B( 11-O , 12-C ) :   0.9019 B( 12-C , 13-C ) :   0.9483 B( 12-C , 26-H ) :   0.9543
B( 13-C , 14-C ) :   1.4278 B( 13-C , 18-C ) :   1.4642 B( 14-C , 15-C ) :   1.4368
B( 14-C , 27-H ) :   0.9998 B( 15-C , 16-C ) :   1.3919 B( 15-C , 28-H ) :   1.0017
B( 16-C , 17-C ) :   1.4256 B( 16-C , 29-H ) :   0.9977 B( 17-C , 18-C ) :   1.4264
B( 17-C , 30-H ) :   0.9954

FINAL SINGLE POINT ENERGY      -832.983235232467

DIPOLE MOMENT
-------------
                                X             Y             Z
Electronic contribution:     -1.26289       0.82874      -2.19172
Nuclear contribution   :      2.49325      -0.76132       2.01345
                        -----------------------------------------
Total Dipole Moment    :      1.23036       0.06742      -0.17827
                        -----------------------------------------
Magnitude (a.u.)       :      1.24503
Magnitude (Debye)      :      3.16463

Rotational constants in cm-1:     0.017289     0.013018     0.009442
Rotational constants in MHz :   518.312695   390.278274   283.063686

                             ****ORCA TERMINATED NORMALLY****
TOTAL RUN TIME: 0 days 0 hours 0 minutes 17 seconds 561 msec
