                         Program Version 5.0.3 -  RELEASE  -
|  1> !RHF def2-SVP TightSCF PAL16
|  2> *xyz 0 1
|  3> O 0.8742417875764738 -0.6754857866428642 -2.1638555171381895
|  4> C 0.5957465338496947 -0.24271216692603786 -0.8354306451146737
|  5> C 1.821199763566478 -0.3415253797700985 0.06688314487787883
|  6> C 1.7899376816523291 0.14440184848180032 1.3890630342483825
|  7> C 2.9107155779034977 0.053529227601535896 2.2184295255802953
|  8> C 4.083668077201849 -0.5282300074581665 1.7431747027387137
|  9> C 4.129910330459005 -1.019534086894948 0.4413386025039598
| 10> Cl 5.57955685542175 -1.7397272322577282 -0.14509655418055575
| 11> C 3.013332836671871 -0.9310521090988823 -0.3907623880967208
| 12> C -0.6446541497068252 -1.0270492481924791 -0.24453565301394936
| 13> N -0.6287615863056708 -2.285888308997266 0.04496302145173053
| 14> C -1.870804064588412 -2.8059113407992866 0.6380679141213415
| 15> C -3.1199158549831214 -2.0770869842897963 0.149690644396227
| 16> C -2.987445249902761 -0.5794018806609934 0.40442166049948663
| 17> N -1.7152248964874108 -0.15839126178092497 -0.1190142481240223
| 18> C -1.3478023795864549 1.1257834275821104 -0.47506367781976017
| 19> C -2.095001468740413 2.288329500471193 -0.45489748435821187
| 20> C -1.4978416212304142 3.4796540932831963 -0.8841460297452176
| 21> C -0.16646729498657822 3.5009789022831463 -1.3299454606025647
| 22> C 0.5930064874932207 2.3321934619251317 -1.3509905872919201
| 23> C -0.0063366446381352606 1.1583080541632247 -0.9165472480528639
| 24> H 0.07504273936086563 -0.48640054123257254 -2.6825774641116937
| 25> H 0.8842064458572607 0.5992604011440534 1.7869095516531164
| 26> H 2.8660359018400494 0.4342515320654373 3.2355534438005527
| 27> H 4.9533031626400295 -0.5994332652416324 2.390149961061261
| 28> H 3.0698246227014145 -1.3293449020138894 -1.4018776546728904
| 29> H -1.7943633486385606 -2.7474870495544277 1.7302677171375227
| 30> H -1.9558870055133368 -3.8669530155877245 0.37905695345091717
| 31> H -4.010759934806038 -2.469134420789355 0.6519309481662776
| 32> H -3.2449809605389492 -2.2560015904529753 -0.9260732289476675
| 33> H -3.0365249514938046 -0.3693246326169956 1.4790825454040588
| 34> H -3.818414920519837 -0.056463119233316754 -0.08179324171386108
| 35> H -3.1256878138674122 2.294804039920077 -0.11776108984547085
| 36> H -2.0727127007683874 4.403363956130379 -0.8748845454046379
| 37> H 0.2760800751028478 4.438162547538483 -1.6606742485702248
| 38> H 1.6237779680032538 2.3395173379025946 -1.6930564042865297
| 39> *
| 40>
| 41>                          ****END OF INPUT****

CARTESIAN COORDINATES (ANGSTROEM)
---------------------------------
  O      0.874242   -0.675486   -2.163856
  C      0.595747   -0.242712   -0.835431
  C      1.821200   -0.341525    0.066883
  C      1.789938    0.144402    1.389063
  C      2.910716    0.053529    2.218430
  C      4.083668   -0.528230    1.743175
  C      4.129910   -1.019534    0.441339
  Cl     5.579557   -1.739727   -0.145097
  C      3.013333   -0.931052   -0.390762
  C     -0.644654   -1.027049   -0.244536
  N     -0.628762   -2.285888    0.044963
  C     -1.870804   -2.805911    0.638068
  C     -3.119916   -2.077087    0.149691
  C     -2.987445   -0.579402    0.404422
  N     -1.715225   -0.158391   -0.119014
  C     -1.347802    1.125783   -0.475064
  C     -2.095001    2.288330   -0.454897
  C     -1.497842    3.479654   -0.884146
  C     -0.166467    3.500979   -1.329945
  C      0.593006    2.332193   -1.350991
  C     -0.006337    1.158308   -0.916547
  H      0.075043   -0.486401   -2.682577
  H      0.884206    0.599260    1.786910
  H      2.866036    0.434252    3.235553
  H      4.953303   -0.599433    2.390150
  H      3.069825   -1.329345   -1.401878
  H     -1.794363   -2.747487    1.730268
  H     -1.955887   -3.866953    0.379057
  H     -4.010760   -2.469134    0.651931
  H     -3.244981   -2.256002   -0.926073
  H     -3.036525   -0.369325    1.479083
  H     -3.818415   -0.056463   -0.081793
  H     -3.125688    2.294804   -0.117761
  H     -2.072713    4.403364   -0.874885
  H      0.276080    4.438163   -1.660674
  H      1.623778    2.339517   -1.693056

 Total Charge           Charge          ....    0
 Multiplicity           Mult            ....    1
 Number of Electrons    NEL             ....  156
 Basis Dimension        Dim             ....  373

ORBITAL ENERGIES
----------------

  NO   OCC          E(Eh)            E(eV)
   0   2.0000    -104.786069     -2851.3739
   1   2.0000     -20.565502      -559.6158
   2   2.0000     -15.606252      -424.6677
   3   2.0000     -15.537787      -422.8047
   4   2.0000     -11.323155      -308.1187
   5   2.0000     -11.322274      -308.0947
   6   2.0000     -11.296860      -307.4032
   7   2.0000     -11.293136      -307.3019
   8   2.0000     -11.288500      -307.1757
   9   2.0000     -11.258946      -306.3715
  10   2.0000     -11.256979      -306.3180
  11   2.0000     -11.256357      -306.3010
  12   2.0000     -11.254569      -306.2524
  13   2.0000     -11.247413      -306.0577
  14   2.0000     -11.247115      -306.0496
  15   2.0000     -11.246179      -306.0241
  16   2.0000     -11.245369      -306.0021
  17   2.0000     -11.244310      -305.9732
  18   2.0000     -11.242987      -305.9372
  19   2.0000     -11.241651      -305.9009
  20   2.0000     -11.240185      -305.8610
  21   2.0000     -10.549930      -287.0782
  22   2.0000      -8.025074      -218.3734
  23   2.0000      -8.021461      -218.2750
  24   2.0000      -8.021404      -218.2735
  25   2.0000      -1.365855       -37.1668
  26   2.0000      -1.316891       -35.8344
  27   2.0000      -1.193593       -32.4793
  28   2.0000      -1.177407       -32.0389
  29   2.0000      -1.142602       -31.0918
  30   2.0000      -1.112760       -30.2797
  31   2.0000      -1.083001       -29.4700
  32   2.0000      -1.040225       -28.3060
  33   2.0000      -1.017630       -27.6911
  34   2.0000      -1.004527       -27.3346
  35   2.0000      -0.981947       -26.7201
  36   2.0000      -0.939459       -25.5640
  37   2.0000      -0.922505       -25.1026
  38   2.0000      -0.860551       -23.4168
  39   2.0000      -0.828703       -22.5502
  40   2.0000      -0.825439       -22.4613
  41   2.0000      -0.820818       -22.3356
  42   2.0000      -0.784297       -21.3418
  43   2.0000      -0.746047       -20.3010
  44   2.0000      -0.731768       -19.9124
  45   2.0000      -0.701180       -19.0801
  46   2.0000      -0.692369       -18.8403
  47   2.0000      -0.677916       -18.4470
  48   2.0000      -0.675115       -18.3708
  49   2.0000      -0.646685       -17.5972
  50   2.0000      -0.633801       -17.2466
  51   2.0000      -0.627620       -17.0784
  52   2.0000      -0.626632       -17.0515
  53   2.0000      -0.621691       -16.9171
  54   2.0000      -0.612364       -16.6633
  55   2.0000      -0.603263       -16.4156
  56   2.0000      -0.592294       -16.1171
  57   2.0000      -0.583796       -15.8859
  58   2.0000      -0.574015       -15.6197
  59   2.0000      -0.557043       -15.1579
  60   2.0000      -0.549477       -14.9520
  61   2.0000      -0.537377       -14.6228
  62   2.0000      -0.530712       -14.4414
  63   2.0000      -0.519400       -14.1336
  64   2.0000      -0.515801       -14.0357
  65   2.0000      -0.510508       -13.8916
  66   2.0000      -0.506966       -13.7953
  67   2.0000      -0.490050       -13.3349
  68   2.0000      -0.480434       -13.0733
  69   2.0000      -0.463123       -12.6022
  70   2.0000      -0.450155       -12.2493
  71   2.0000      -0.443316       -12.0632
  72   2.0000      -0.396869       -10.7993
  73   2.0000      -0.387453       -10.5431
  74   2.0000      -0.354781        -9.6541
  75   2.0000      -0.338771        -9.2184
  76   2.0000      -0.323239        -8.7958
  77   2.0000      -0.298182        -8.1139
  78   0.0000       0.103309         2.8112
  79   0.0000       0.118913         3.2358
  80   0.0000       0.124494         3.3877
  81   0.0000       0.131529         3.5791
  82   0.0000       0.157571         4.2877

MULLIKEN ATOMIC CHARGES
-----------------------
   0 O :   -0.422420
   1 C :    0.278058
   2 C :   -0.100660
   3 C :   -0.015640
   4 C :   -0.030811
   5 C :   -0.011083
   6 C :    0.037227
   7 Cl:   -0.137983
   8 C :    0.021884
   9 C :    0.372051
  10 N :   -0.433683
  11 C :    0.184141
  12 C :   -0.132904
  13 C :    0.237747
  14 N :   -0.647126
  15 C :    0.323183
  16 C :   -0.150898
  17 C :    0.010615
  18 C :   -0.072677
  19 C :    0.036837
  20 C :   -0.176584
  21 H :    0.203859
  22 H :    0.043467
  23 H :    0.045594
  24 H :    0.044637
  25 H :    0.065254
  26 H :    0.037714
  27 H :    0.040729
  28 H :    0.044859
  29 H :    0.051333
  30 H :    0.040131
  31 H :    0.049461
  32 H :    0.026894
  33 H :    0.046714
  34 H :    0.042078
  35 H :    0.048006
Sum of atomic charges:   -0.0000000

LOEWDIN ATOMIC CHARGES
----------------------
   0 O :   -0.157800
   1 C :    0.107172
   2 C :   -0.015767
   3 C :   -0.016072
   4 C :   -0.017684
   5 C :   -0.038982
   6 C :   -0.113171
   7 Cl:    0.092815
   8 C :   -0.017898
   9 C :    0.099681
  10 N :   -0.221454
  11 C :    0.053982
  12 C :   -0.035086
  13 C :    0.081610
  14 N :   -0.105615
  15 C :    0.060401
  16 C :   -0.079304
  17 C :    0.005531
  18 C :   -0.058019
  19 C :    0.018699
  20 C :   -0.084752
  21 H :    0.090254
  22 H :    0.026792
  23 H :    0.030764
  24 H :    0.030789
  25 H :    0.039909
  26 H :    0.013145
  27 H :    0.017288
  28 H :    0.023126
  29 H :    0.021515
  30 H :    0.010748
  31 H :    0.019023
  32 H :    0.024916
  33 H :    0.030333
  34 H :    0.026284
  35 H :    0.036825

  Mayer bond orders larger than 0.100000
B(  0-O ,  1-C ) :   0.9646 B(  0-O , 21-H ) :   0.9629 B(  1-C ,  2-C ) :   0.9697
B(  1-C ,  9-C ) :   0.8978 B(  1-C , 20-C ) :   0.9642 B(  2-C ,  3-C ) :   1.4015
B(  2-C ,  8-C ) :   1.4420 B(  3-C ,  4-C ) :   1.4455 B(  3-C , 22-H ) :   0.9941
B(  4-C ,  5-C ) :   1.4055 B(  4-C , 23-H ) :   0.9977 B(  5-C ,  6-C ) :   1.4194
B(  5-C , 24-H ) :   1.0013 B(  6-C ,  7-Cl) :   0.9484 B(  6-C ,  8-C ) :   1.3912
B(  8-C , 25-H ) :   1.0011 B(  9-C , 10-N ) :   1.9881 B(  9-C , 14-N ) :   1.0214
B( 10-N , 11-C ) :   0.9409 B( 11-C , 12-C ) :   1.0246 B( 11-C , 26-H ) :   0.9724
B( 11-C , 27-H ) :   0.9799 B( 12-C , 13-C ) :   1.0261 B( 12-C , 28-H ) :   0.9729
B( 12-C , 29-H ) :   0.9684 B( 13-C , 14-N ) :   0.8492 B( 13-C , 30-H ) :   0.9781
B( 13-C , 31-H ) :   0.9766 B( 14-N , 15-C ) :   0.9714 B( 15-C , 16-C ) :   1.4127
B( 15-C , 20-C ) :   1.3520 B( 16-C , 17-C ) :   1.3878 B( 16-C , 32-H ) :   1.0105
B( 17-C , 18-C ) :   1.4360 B( 17-C , 33-H ) :   0.9963 B( 18-C , 19-C ) :   1.3872
B( 18-C , 34-H ) :   0.9998 B( 19-C , 20-C ) :   1.4831 B( 19-C , 35-H ) :   1.0071

FINAL SINGLE POINT ENERGY     -1294.973653959928

DIPOLE MOMENT
-------------
                                X             Y             Z
Electronic contribution:     24.08466      -3.72615      -3.29772
Nuclear contribution   :    -26.13194       4.83914       3.79988
                        -----------------------------------------
Total Dipole Moment    :     -2.04728       1.11298       0.50216
                        -----------------------------------------
Magnitude (a.u.)       :      2.38375
Magnitude (Debye)      :      6.05900

Rotational constants in cm-1:     0.015082     0.006603     0.005363
Rotational constants in MHz :   452.160128   197.963828   160.773744

                             ****ORCA TERMINATED NORMALLY****
TOTAL RUN TIME: 0 days 0 hours 0 minutes 24 seconds 748 msec
