                         Program Version 5.0.3 -  RELEASE  -
|  1> !RHF def2-SVP TightSCF PAL16
|  2> *xyz 0 1
|  3> C 5.257181806145031 0.2727682695172032 -0.10517104699158623
|  4> O 3.8850088390813173 0.6376376772332568 -0.02569576967942359
|  5> C 2.9470715640579144 -0.3696906343316817 -0.04607781661934639
|  6> C 3.274040497489281 -1.7207891688555543 -0.11831952350502109
|  7> C 2.2635482630210437 -2.666071497233006 -0.13261063122014355
|  8> C 0.9271271870206461 -2.263397420096601 -0.07182154717095121
|  9> C 0.5232483696273901 -0.9052243778975247 0.008081737719687405
| 10> C 1.5837674823970145 0.039245778851015226 0.013367520239211816
| 11> C 1.26221484884348 1.3929920090228078 0.10106117302014261
| 12> C -0.0683148436970989 1.8239325977821796 0.14295430765619088
| 13> N -0.22203382545635375 3.24381435811273 0.43175488531070383
| 14> O -0.8375541653457288 3.541160891780565 1.464096630358864
| 15> O 0.31311744617144127 4.047697982230564 -0.3444876965875935
| 16> C -1.1880156150845447 0.9449626827587662 0.07181266391382629
| 17> C -2.5896499284240155 1.3319228531665548 0.010382243277326784
| 18> C -3.0679934178932564 2.7074773409863555 -0.2532374830965124
| 19> O -3.9971218117523444 3.2704188724044743 0.2887213774492993
| 20> O -2.414277907945241 3.2324815141301633 -1.3016339361197695
| 21> C -3.635390053345 0.40852875547385853 0.09108737797744414
| 22> C -3.2978995668766937 -0.9098973930156053 0.16849429613479427
| 23> C -1.9838171388910948 -1.3285208643580682 0.14300710988145043
| 24> C -0.8701306163704701 -0.4544220390616071 0.07175168186065779
| 25> O -1.9370303043781893 -2.6966736729895677 0.21517616924253552
| 26> C -3.325191055703175 -3.0596640431133304 0.2903134513370108
| 27> O -4.19854169261008 -1.9248497397333844 0.24445669242567067
| 28> H 5.475138994888597 -0.2426025062420448 -1.046275404113203
| 29> H 5.848439385730921 1.1933673067641979 -0.08637498356023578
| 30> H 5.555385472042667 -0.3308746623329355 0.758192013985272
| 31> H 4.299371990446972 -2.06983205543157 -0.16516939722657098
| 32> H 2.506433550340292 -3.7243107113392298 -0.19324101079964515
| 33> H 0.1998632737030321 -3.067657831478476 -0.10179638290563453
| 34> H 2.0596676146579496 2.1354303924493325 0.1593630841700756
| 35> H -2.8121755759682117 4.12227662135019 -1.4235286238448532
| 36> H -4.676941446059507 0.7147668669401361 0.06447906411515535
| 37> H -3.497317039698348 -3.603311290442632 1.2262793515869521
| 38> H -3.561230580165012 -3.723092863001332 -0.5493915782216672
| 39> *
| 40>
| 41>                          ****END OF INPUT****

CARTESIAN COORDINATES (ANGSTROEM)
---------------------------------
  C      5.257182    0.272768   -0.105171
  O      3.885009    0.637638   -0.025696
  C      2.947072   -0.369691   -0.046078
  C      3.274040   -1.720789   -0.118320
  C      2.263548   -2.666071   -0.132611
  C      0.927127   -2.263397   -0.071822
  C      0.523248   -0.905224    0.008082
  C      1.583767    0.039246    0.013368
  C      1.262215    1.392992    0.101061
  C     -0.068315    1.823933    0.142954
  N     -0.222034    3.243814    0.431755
  O     -0.837554    3.541161    1.464097
  O      0.313117    4.047698   -0.344488
  C     -1.188016    0.944963    0.071813
  C     -2.589650    1.331923    0.010382
  C     -3.067993    2.707477   -0.253237
  O     -3.997122    3.270419    0.288721
  O     -2.414278    3.232482   -1.301634
  C     -3.635390    0.408529    0.091087
  C     -3.297900   -0.909897    0.168494
  C     -1.983817   -1.328521    0.143007
  C     -0.870131   -0.454422    0.071752
  O     -1.937030   -2.696674    0.215176
  C     -3.325191   -3.059664    0.290313
  O     -4.198542   -1.924850    0.244457
  H      5.475139   -0.242603   -1.046275
  H      5.848439    1.193367   -0.086375
  H      5.555385   -0.330875    0.758192
  H      4.299372   -2.069832   -0.165169
  H      2.506434   -3.724311   -0.193241
  H      0.199863   -3.067658   -0.101796
  H      2.059668    2.135430    0.159363
  H     -2.812176    4.122277   -1.423529
  H     -4.676941    0.714767    0.064479
  H     -3.497317   -3.603311    1.226279
  H     -3.561231   -3.723093   -0.549392

 Total Charge           Charge          ....    0
 Multiplicity           Mult            ....    1
 Number of Electrons    NEL             ....  176
 Basis Dimension        Dim             ....  405

ORBITAL ENERGIES
----------------

  NO   OCC          E(Eh)            E(eV)
   0   2.0000     -20.625210      -561.2405
   1   2.0000     -20.620046      -561.1000
   2   2.0000     -20.610461      -560.8392
   3   2.0000     -20.603197      -560.6415
   4   2.0000     -20.594933      -560.4166
   5   2.0000     -20.594334      -560.4003
   6   2.0000     -20.544181      -559.0356
   7   2.0000     -15.844917      -431.1621
   8   2.0000     -11.396988      -310.1278
   9   2.0000     -11.379370      -309.6484
  10   2.0000     -11.338453      -308.5350
  11   2.0000     -11.337702      -308.5145
  12   2.0000     -11.322094      -308.0898
  13   2.0000     -11.317299      -307.9594
  14   2.0000     -11.311498      -307.8015
  15   2.0000     -11.305065      -307.6265
  16   2.0000     -11.296348      -307.3893
  17   2.0000     -11.291757      -307.2643
  18   2.0000     -11.288594      -307.1783
  19   2.0000     -11.281526      -306.9859
  20   2.0000     -11.277382      -306.8732
  21   2.0000     -11.272259      -306.7338
  22   2.0000     -11.268213      -306.6237
  23   2.0000     -11.258197      -306.3511
  24   2.0000     -11.252878      -306.2064
  25   2.0000      -1.578655       -42.9574
  26   2.0000      -1.493235       -40.6330
  27   2.0000      -1.454048       -39.5667
  28   2.0000      -1.413250       -38.4565
  29   2.0000      -1.394185       -37.9377
  30   2.0000      -1.374385       -37.3989
  31   2.0000      -1.341814       -36.5126
  32   2.0000      -1.215346       -33.0712
  33   2.0000      -1.168632       -31.8001
  34   2.0000      -1.138535       -30.9811
  35   2.0000      -1.084601       -29.5135
  36   2.0000      -1.063982       -28.9524
  37   2.0000      -1.044348       -28.4182
  38   2.0000      -1.016544       -27.6616
  39   2.0000      -0.968419       -26.3520
  40   2.0000      -0.941848       -25.6290
  41   2.0000      -0.939190       -25.5567
  42   2.0000      -0.916881       -24.9496
  43   2.0000      -0.893762       -24.3205
  44   2.0000      -0.854480       -23.2516
  45   2.0000      -0.832996       -22.6670
  46   2.0000      -0.811793       -22.0900
  47   2.0000      -0.784130       -21.3373
  48   2.0000      -0.768150       -20.9024
  49   2.0000      -0.752961       -20.4891
  50   2.0000      -0.745550       -20.2874
  51   2.0000      -0.740013       -20.1368
  52   2.0000      -0.722222       -19.6527
  53   2.0000      -0.718261       -19.5449
  54   2.0000      -0.706077       -19.2133
  55   2.0000      -0.700243       -19.0546
  56   2.0000      -0.695520       -18.9261
  57   2.0000      -0.677694       -18.4410
  58   2.0000      -0.676916       -18.4198
  59   2.0000      -0.663716       -18.0606
  60   2.0000      -0.655863       -17.8469
  61   2.0000      -0.644276       -17.5317
  62   2.0000      -0.631217       -17.1763
  63   2.0000      -0.624010       -16.9802
  64   2.0000      -0.621023       -16.8989
  65   2.0000      -0.603135       -16.4121
  66   2.0000      -0.602438       -16.3932
  67   2.0000      -0.599749       -16.3200
  68   2.0000      -0.592453       -16.1215
  69   2.0000      -0.587910       -15.9978
  70   2.0000      -0.574607       -15.6359
  71   2.0000      -0.570824       -15.5329
  72   2.0000      -0.557845       -15.1797
  73   2.0000      -0.550438       -14.9782
  74   2.0000      -0.523959       -14.2577
  75   2.0000      -0.517284       -14.0760
  76   2.0000      -0.512209       -13.9379
  77   2.0000      -0.499436       -13.5904
  78   2.0000      -0.492582       -13.4038
  79   2.0000      -0.486694       -13.2436
  80   2.0000      -0.478292       -13.0150
  81   2.0000      -0.461841       -12.5673
  82   2.0000      -0.442734       -12.0474
  83   2.0000      -0.438282       -11.9263
  84   2.0000      -0.399526       -10.8716
  85   2.0000      -0.363596        -9.8940
  86   2.0000      -0.323219        -8.7952
  87   2.0000      -0.292759        -7.9664
  88   0.0000       0.032417         0.8821
  89   0.0000       0.062511         1.7010
  90   0.0000       0.080605         2.1934
  91   0.0000       0.119585         3.2541
  92   0.0000       0.153710         4.1827

MULLIKEN ATOMIC CHARGES
-----------------------
   0 C :    0.227945
   1 O :   -0.569436
   2 C :    0.399814
   3 C :   -0.149941
   4 C :    0.018797
   5 C :   -0.053149
   6 C :    0.042673
   7 C :   -0.170834
   8 C :    0.108739
   9 C :    0.112509
  10 N :    0.310174
  11 O :   -0.341355
  12 O :   -0.340084
  13 C :    0.046242
  14 C :   -0.115474
  15 C :    0.508753
  16 O :   -0.393105
  17 O :   -0.349977
  18 C :   -0.026771
  19 C :    0.250573
  20 C :    0.235948
  21 C :   -0.048312
  22 O :   -0.552221
  23 C :    0.556349
  24 O :   -0.516024
  25 H :    0.039948
  26 H :    0.060457
  27 H :    0.039717
  28 H :    0.042125
  29 H :    0.051945
  30 H :    0.066966
  31 H :    0.090854
  32 H :    0.233256
  33 H :    0.079861
  34 H :    0.052293
  35 H :    0.050744
Sum of atomic charges:    0.0000000

LOEWDIN ATOMIC CHARGES
----------------------
   0 C :    0.137545
   1 O :   -0.198949
   2 C :    0.129304
   3 C :   -0.081867
   4 C :    0.010199
   5 C :   -0.039716
   6 C :    0.019791
   7 C :   -0.064656
   8 C :    0.063204
   9 C :   -0.018203
  10 N :    0.373028
  11 O :   -0.272323
  12 O :   -0.269035
  13 C :    0.007265
  14 C :   -0.068879
  15 C :    0.196262
  16 O :   -0.264046
  17 O :   -0.098681
  18 C :    0.023546
  19 C :    0.036518
  20 C :    0.085856
  21 C :   -0.028126
  22 O :   -0.187465
  23 C :    0.287893
  24 O :   -0.181800
  25 H :    0.011307
  26 H :    0.025743
  27 H :    0.010998
  28 H :    0.031112
  29 H :    0.035673
  30 H :    0.031112
  31 H :    0.054080
  32 H :    0.121202
  33 H :    0.056493
  34 H :    0.013047
  35 H :    0.012569

  Mayer bond orders larger than 0.100000
B(  0-C ,  1-O ) :   0.8513 B(  0-C , 25-H ) :   0.9847 B(  0-C , 26-H ) :   0.9922
B(  0-C , 27-H ) :   0.9848 B(  1-O ,  2-C ) :   1.0223 B(  2-C ,  3-C ) :   1.4432
B(  2-C ,  7-C ) :   1.2930 B(  3-C ,  4-C ) :   1.3066 B(  3-C , 28-H ) :   1.0057
B(  4-C ,  5-C ) :   1.5055 B(  4-C , 29-H ) :   0.9969 B(  5-C ,  6-C ) :   1.3446
B(  5-C , 30-H ) :   0.9890 B(  6-C ,  7-C ) :   1.3404 B(  6-C , 21-C ) :   1.1111
B(  7-C ,  8-C ) :   1.1784 B(  8-C ,  9-C ) :   1.6316 B(  8-C , 31-H ) :   0.9936
B(  9-C , 10-N ) :   0.8008 B(  9-C , 13-C ) :   1.1881 B( 10-N , 11-O ) :   1.4901
B( 10-N , 12-O ) :   1.5069 B( 11-O , 12-O ) :   0.2094 B( 13-C , 14-C ) :   1.2897
B( 13-C , 21-C ) :   1.3778 B( 14-C , 15-C ) :   0.9289 B( 14-C , 18-C ) :   1.4986
B( 15-C , 16-O ) :   2.0265 B( 15-C , 17-O ) :   1.1521 B( 17-O , 32-H ) :   0.9384
B( 18-C , 19-C ) :   1.3388 B( 18-C , 33-H ) :   1.0149 B( 19-C , 20-C ) :   1.4177
B( 19-C , 24-O ) :   0.9590 B( 20-C , 21-C ) :   1.3476 B( 20-C , 22-O ) :   0.9599
B( 22-O , 23-C ) :   0.8804 B( 23-C , 24-O ) :   0.8999 B( 23-C , 34-H ) :   0.9839
B( 23-C , 35-H ) :   0.9844

FINAL SINGLE POINT ENERGY     -1227.547048578644

DIPOLE MOMENT
-------------
                                X             Y             Z
Electronic contribution:    -13.87238       9.25027       1.08286
Nuclear contribution   :     15.52004     -12.21701      -1.81182
                        -----------------------------------------
Total Dipole Moment    :      1.64766      -2.96675      -0.72896
                        -----------------------------------------
Magnitude (a.u.)       :      3.47099
Magnitude (Debye)      :      8.82255

Rotational constants in cm-1:     0.009832     0.006628     0.004106
Rotational constants in MHz :   294.765977   198.705901   123.106221

                             ****ORCA TERMINATED NORMALLY****
TOTAL RUN TIME: 0 days 0 hours 0 minutes 28 seconds 608 msec
