                         Program Version 5.0.3 -  RELEASE  -
|  1> !RHF def2-SVP TightSCF PAL16
|  2> *xyz 0 1
|  3> C 4.188948022161857 0.999840248002017 -3.246094224520146
|  4> C 3.3087950791967207 0.5876218838929824 -2.0968720558161356
|  5> C 1.96548307528737 0.2566327480511029 -2.3602946983470057
|  6> C 1.1057893574313196 -0.1340133441194072 -1.3324101832519757
|  7> C 1.576052813601582 -0.1833812477188446 -0.02605232379709861
|  8> O 0.7257322904875207 -0.6010134140235879 0.960627438298041
|  9> C 0.10055375590329522 0.5337667586529972 1.5890741045804946
| 10> C -1.0568255654608207 0.029257009151604133 2.4630069925974762
| 11> O -0.5445842976621501 -0.8677926443964165 3.4592062526478498
| 12> C -2.1557943219407347 -0.699180936218644 1.6582639767047358
| 13> N -2.8388503147250215 0.19997228742657236 0.7202290973979342
| 14> C -3.8572780291281026 -0.4272831340229761 -0.14551135578405616
| 15> C -4.4164791575545745 0.7031438789768614 -1.0319335688465974
| 16> C -5.016458775858019 -1.0271297707073344 0.6674716030820922
| 17> C -3.2489562943457666 -1.5003597133621966 -1.0633648990809772
| 18> C 2.909732627893995 0.12309531617848994 0.24413236743621605
| 19> O 3.3440016674590614 0.022951518505649086 1.584122061894719
| 20> C 4.647434102262488 0.31037742157372716 1.9497598825240636
| 21> O 5.041144214003447 0.2351272974181227 3.107648041221128
| 22> C 5.558866585429001 0.7232901726767892 0.8726440665835238
| 23> C 5.166151222332545 0.8222932244688541 -0.400510315576324
| 24> C 3.7880302849476726 0.5143676449645527 -0.7728935271287344
| 25> H 3.6383505092367083 1.0072950931730589 -4.192966109009552
| 26> H 4.575744051635344 2.0113711721097833 -3.0854691956598876
| 27> H 5.022919721748773 0.29937309916379384 -3.356984367397644
| 28> H 1.5778111631911007 0.2971380693537239 -3.376841036765258
| 29> H 0.073556907250851 -0.39441840705752534 -1.5502664473718188
| 30> H -0.26744699335955435 1.2510982528140164 0.8448502965319119
| 31> H 0.8418447358446083 1.0278793482372186 2.2291723279134654
| 32> H -1.4982961286140684 0.8767817390001399 2.999339051299043
| 33> H 0.09628053912419501 -1.445323679437408 2.9999449820547484
| 34> H -2.8714118482386373 -1.1216885113816546 2.373454351664054
| 35> H -1.7014002303448856 -1.5499094742017563 1.1395273657991225
| 36> H -3.2815356237789834 0.9484978733922257 1.2562102599140466
| 37> H -4.883683866121383 1.4924838070257955 -0.4306994300314268
| 38> H -3.62629105729549 1.1665571747092265 -1.6348890943428565
| 39> H -5.177772134914609 0.3237984192190134 -1.7234968839892841
| 40> H -4.697697023374367 -1.892360218093751 1.258778135555859
| 41> H -5.446385938188787 -0.2884365857682795 1.3538990776312685
| 42> H -5.821815364738922 -1.3685488009673614 0.006567003894707288
| 43> H -3.982996299481845 -1.8446065875945596 -1.8014824083158483
| 44> H -2.920855190484501 -2.3834374312491167 -0.505159761351304
| 45> H -2.387586787599814 -1.1093037037043707 -1.6165644300976745
| 46> H 6.575046566721635 0.9442634915103946 1.1758007355981812
| 47> H 5.872131950057445 1.1299126543766067 -1.1629731563426673
| 48> *
| 49>
| 50>                          ****END OF INPUT****

CARTESIAN COORDINATES (ANGSTROEM)
---------------------------------
  C      4.188948    0.999840   -3.246094
  C      3.308795    0.587622   -2.096872
  C      1.965483    0.256633   -2.360295
  C      1.105789   -0.134013   -1.332410
  C      1.576053   -0.183381   -0.026052
  O      0.725732   -0.601013    0.960627
  C      0.100554    0.533767    1.589074
  C     -1.056826    0.029257    2.463007
  O     -0.544584   -0.867793    3.459206
  C     -2.155794   -0.699181    1.658264
  N     -2.838850    0.199972    0.720229
  C     -3.857278   -0.427283   -0.145511
  C     -4.416479    0.703144   -1.031934
  C     -5.016459   -1.027130    0.667472
  C     -3.248956   -1.500360   -1.063365
  C      2.909733    0.123095    0.244132
  O      3.344002    0.022952    1.584122
  C      4.647434    0.310377    1.949760
  O      5.041144    0.235127    3.107648
  C      5.558867    0.723290    0.872644
  C      5.166151    0.822293   -0.400510
  C      3.788030    0.514368   -0.772894
  H      3.638351    1.007295   -4.192966
  H      4.575744    2.011371   -3.085469
  H      5.022920    0.299373   -3.356984
  H      1.577811    0.297138   -3.376841
  H      0.073557   -0.394418   -1.550266
  H     -0.267447    1.251098    0.844850
  H      0.841845    1.027879    2.229172
  H     -1.498296    0.876782    2.999339
  H      0.096281   -1.445324    2.999945
  H     -2.871412   -1.121689    2.373454
  H     -1.701400   -1.549909    1.139527
  H     -3.281536    0.948498    1.256210
  H     -4.883684    1.492484   -0.430699
  H     -3.626291    1.166557   -1.634889
  H     -5.177772    0.323798   -1.723497
  H     -4.697697   -1.892360    1.258778
  H     -5.446386   -0.288437    1.353899
  H     -5.821815   -1.368549    0.006567
  H     -3.982996   -1.844607   -1.801482
  H     -2.920855   -2.383437   -0.505160
  H     -2.387587   -1.109304   -1.616564
  H      6.575047    0.944263    1.175801
  H      5.872132    1.129913   -1.162973

 Total Charge           Charge          ....    0
 Multiplicity           Mult            ....    1
 Number of Electrons    NEL             ....  164
 Basis Dimension        Dim             ....  423

ORBITAL ENERGIES
----------------

  NO   OCC          E(Eh)            E(eV)
   0   2.0000     -20.628444      -561.3285
   1   2.0000     -20.581414      -560.0488
   2   2.0000     -20.538317      -558.8760
   3   2.0000     -20.537468      -558.8529
   4   2.0000     -15.542399      -422.9302
   5   2.0000     -11.400111      -310.2128
   6   2.0000     -11.336417      -308.4796
   7   2.0000     -11.313269      -307.8497
   8   2.0000     -11.289935      -307.2147
   9   2.0000     -11.286837      -307.1305
  10   2.0000     -11.282582      -307.0147
  11   2.0000     -11.275309      -306.8168
  12   2.0000     -11.274199      -306.7866
  13   2.0000     -11.266541      -306.5782
  14   2.0000     -11.263570      -306.4973
  15   2.0000     -11.261873      -306.4511
  16   2.0000     -11.257829      -306.3411
  17   2.0000     -11.254646      -306.2545
  18   2.0000     -11.246465      -306.0319
  19   2.0000     -11.224883      -305.4446
  20   2.0000     -11.221888      -305.3631
  21   2.0000     -11.221131      -305.3425
  22   2.0000      -1.449767       -39.4502
  23   2.0000      -1.399661       -38.0867
  24   2.0000      -1.346534       -36.6411
  25   2.0000      -1.324484       -36.0411
  26   2.0000      -1.201113       -32.6839
  27   2.0000      -1.177823       -32.0502
  28   2.0000      -1.110608       -30.2212
  29   2.0000      -1.061450       -28.8835
  30   2.0000      -1.051185       -28.6042
  31   2.0000      -1.029920       -28.0256
  32   2.0000      -0.994582       -27.0640
  33   2.0000      -0.944473       -25.7004
  34   2.0000      -0.930185       -25.3116
  35   2.0000      -0.927606       -25.2414
  36   2.0000      -0.901016       -24.5179
  37   2.0000      -0.890100       -24.2208
  38   2.0000      -0.879143       -23.9227
  39   2.0000      -0.827288       -22.5116
  40   2.0000      -0.798961       -21.7408
  41   2.0000      -0.766765       -20.8647
  42   2.0000      -0.751471       -20.4486
  43   2.0000      -0.736853       -20.0508
  44   2.0000      -0.722099       -19.6493
  45   2.0000      -0.688537       -18.7360
  46   2.0000      -0.671738       -18.2789
  47   2.0000      -0.665647       -18.1132
  48   2.0000      -0.655501       -17.8371
  49   2.0000      -0.655162       -17.8279
  50   2.0000      -0.644658       -17.5420
  51   2.0000      -0.637586       -17.3496
  52   2.0000      -0.632000       -17.1976
  53   2.0000      -0.630082       -17.1454
  54   2.0000      -0.616161       -16.7666
  55   2.0000      -0.608210       -16.5502
  56   2.0000      -0.604978       -16.4623
  57   2.0000      -0.597813       -16.2673
  58   2.0000      -0.586496       -15.9594
  59   2.0000      -0.581127       -15.8133
  60   2.0000      -0.575217       -15.6525
  61   2.0000      -0.564235       -15.3536
  62   2.0000      -0.553391       -15.0585
  63   2.0000      -0.543228       -14.7820
  64   2.0000      -0.535109       -14.5611
  65   2.0000      -0.531189       -14.4544
  66   2.0000      -0.524368       -14.2688
  67   2.0000      -0.521528       -14.1915
  68   2.0000      -0.516964       -14.0673
  69   2.0000      -0.512694       -13.9511
  70   2.0000      -0.511828       -13.9276
  71   2.0000      -0.495229       -13.4759
  72   2.0000      -0.482662       -13.1339
  73   2.0000      -0.474244       -12.9048
  74   2.0000      -0.465967       -12.6796
  75   2.0000      -0.461075       -12.5465
  76   2.0000      -0.450358       -12.2549
  77   2.0000      -0.436385       -11.8746
  78   2.0000      -0.428863       -11.6699
  79   2.0000      -0.367989       -10.0135
  80   2.0000      -0.337766        -9.1911
  81   2.0000      -0.332267        -9.0414
  82   0.0000       0.052757         1.4356
  83   0.0000       0.119303         3.2464
  84   0.0000       0.143805         3.9131
  85   0.0000       0.156088         4.2474
  86   0.0000       0.165044         4.4911

MULLIKEN ATOMIC CHARGES
-----------------------
   0 C :    0.077153
   1 C :   -0.167189
   2 C :   -0.029546
   3 C :   -0.021660
   4 C :    0.200656
   5 O :   -0.590490
   6 C :    0.304068
   7 C :    0.203446
   8 O :   -0.481471
   9 C :    0.171930
  10 N :   -0.479568
  11 C :   -0.258403
  12 C :    0.061366
  13 C :    0.050014
  14 C :    0.047449
  15 C :    0.301710
  16 O :   -0.540130
  17 C :    0.599619
  18 O :   -0.385462
  19 C :   -0.200800
  20 C :    0.130520
  21 C :   -0.139588
  22 H :    0.043792
  23 H :    0.054387
  24 H :    0.055768
  25 H :    0.037692
  26 H :    0.053203
  27 H :    0.037700
  28 H :    0.055433
  29 H :    0.022691
  30 H :    0.214158
  31 H :    0.027598
  32 H :    0.032970
  33 H :    0.123331
  34 H :    0.019357
  35 H :    0.032468
  36 H :    0.023665
  37 H :    0.036063
  38 H :    0.021291
  39 H :    0.025404
  40 H :    0.028862
  41 H :    0.034738
  42 H :    0.031675
  43 H :    0.075152
  44 H :    0.058977
Sum of atomic charges:    0.0000000

LOEWDIN ATOMIC CHARGES
----------------------
   0 C :   -0.020408
   1 C :   -0.014610
   2 C :   -0.035263
   3 C :   -0.003897
   4 C :    0.046754
   5 O :   -0.208737
   6 C :    0.132123
   7 C :    0.099821
   8 O :   -0.196856
   9 C :    0.046327
  10 N :   -0.159152
  11 C :    0.004651
  12 C :   -0.023920
  13 C :   -0.034580
  14 C :   -0.023733
  15 C :    0.113133
  16 O :   -0.153222
  17 C :    0.227968
  18 O :   -0.257876
  19 C :   -0.074318
  20 C :    0.047778
  21 C :   -0.076392
  22 H :    0.028744
  23 H :    0.028575
  24 H :    0.029159
  25 H :    0.028937
  26 H :    0.040216
  27 H :    0.011314
  28 H :    0.015060
  29 H :    0.013576
  30 H :    0.088216
  31 H :   -0.000697
  32 H :    0.011926
  33 H :    0.050143
  34 H :    0.010970
  35 H :    0.016330
  36 H :    0.013901
  37 H :    0.015147
  38 H :    0.012545
  39 H :    0.016474
  40 H :    0.019308
  41 H :    0.014750
  42 H :    0.015195
  43 H :    0.045468
  44 H :    0.039154

  Mayer bond orders larger than 0.100000
B(  0-C ,  1-C ) :   1.0054 B(  0-C , 22-H ) :   0.9834 B(  0-C , 23-H ) :   0.9734
B(  0-C , 24-H ) :   0.9730 B(  1-C ,  2-C ) :   1.4611 B(  1-C , 21-C ) :   1.3804
B(  2-C ,  3-C ) :   1.3727 B(  2-C , 25-H ) :   1.0012 B(  3-C ,  4-C ) :   1.4494
B(  3-C , 26-H ) :   1.0101 B(  4-C ,  5-O ) :   0.9707 B(  4-C , 15-C ) :   1.4057
B(  5-O ,  6-C ) :   0.8170 B(  6-C ,  7-C ) :   1.0249 B(  6-C , 27-H ) :   0.9586
B(  6-C , 28-H ) :   0.9714 B(  7-C ,  8-O ) :   0.8970 B(  7-C ,  9-C ) :   1.0248
B(  7-C , 29-H ) :   0.9571 B(  8-O , 30-H ) :   0.9635 B(  9-C , 10-N ) :   0.9223
B(  9-C , 31-H ) :   0.9716 B(  9-C , 32-H ) :   0.9598 B( 10-N , 11-C ) :   0.9265
B( 10-N , 33-H ) :   0.9495 B( 11-C , 12-C ) :   1.0174 B( 11-C , 13-C ) :   0.9895
B( 11-C , 14-C ) :   1.0049 B( 12-C , 34-H ) :   0.9819 B( 12-C , 35-H ) :   0.9837
B( 12-C , 36-H ) :   0.9843 B( 13-C , 37-H ) :   0.9821 B( 13-C , 38-H ) :   0.9807
B( 13-C , 39-H ) :   0.9803 B( 14-C , 40-H ) :   0.9819 B( 14-C , 41-H ) :   0.9811
B( 14-C , 42-H ) :   0.9830 B( 15-C , 16-O ) :   0.9573 B( 15-C , 21-C ) :   1.3426
B( 16-O , 17-C ) :   0.9595 B( 17-C , 18-O ) :   2.0137 B( 17-C , 19-C ) :   1.0354
B( 19-C , 20-C ) :   1.7806 B( 19-C , 43-H ) :   0.9882 B( 20-C , 21-C ) :   1.0511
B( 20-C , 44-H ) :   0.9849

FINAL SINGLE POINT ENERGY     -1010.271103642599

DIPOLE MOMENT
-------------
                                X             Y             Z
Electronic contribution:     36.31417       1.52738      11.36761
Nuclear contribution   :    -36.76912      -0.77077     -14.22124
                        -----------------------------------------
Total Dipole Moment    :     -0.45495       0.75662      -2.85362
                        -----------------------------------------
Magnitude (a.u.)       :      2.98707
Magnitude (Debye)      :      7.59254

Rotational constants in cm-1:     0.015770     0.004732     0.003787
Rotational constants in MHz :   472.760354   141.873045   113.536037

                             ****ORCA TERMINATED NORMALLY****
TOTAL RUN TIME: 0 days 0 hours 0 minutes 27 seconds 296 msec
