                         Program Version 5.0.3 -  RELEASE  -
|  1> !RHF def2-SVP TightSCF PAL16
|  2> *xyz 0 1
|  3> C -4.031104609583832 2.177949253685898 -1.6704716109843218
|  4> C -3.3797027279789202 1.8625704423276814 -0.3450422680830866
|  5> O -2.9448472019238117 2.773059904052874 0.3635221664285393
|  6> C -3.2872288103868152 0.36838363619573494 0.06858150028176896
|  7> O -4.368175453759487 -0.3446822319449817 -0.5270610495500533
|  8> C -3.3728919932130457 0.2231030873941991 1.6127700841638444
|  9> C -1.9394770461893858 -0.012544555419851208 2.1216985596910507
| 10> C -1.049796856761308 0.2106408092968488 0.9023258173448938
| 11> C 0.36054657587283445 -0.3926259831761614 0.9103233349916172
| 12> C 1.1521174226922288 0.06722299582559625 2.1446053237657696
| 13> C 2.5639157831892674 -0.5046799334462474 2.1498645417079945
| 14> C 3.2714385374740247 -0.15229671889644392 0.8673979388634679
| 15> C 4.412661757136762 0.5591230674129064 0.9113101699794272
| 16> C 5.113700462786997 0.9918506261015676 -0.31298918688986777
| 17> O 6.149637910649863 1.642021607420182 -0.2593944627603961
| 18> C 4.510925661122666 0.61042650731812 -1.6010831200486377
| 19> C 3.3757746528931043 -0.09897901339153206 -1.6461855510028545
| 20> C 2.5828772769651187 -0.5886057893014324 -0.4388759822104679
| 21> C 2.600717585606967 -2.1319240583495978 -0.5296423607577209
| 22> C 1.1073001170260932 -0.007629273998191301 -0.4188438713843985
| 23> C 0.23193631889602023 -0.3447342991032664 -1.6693554901823318
| 24> O 0.7667828656461565 0.24387018873087515 -2.854696948827924
| 25> C -1.2249950115542707 0.15558967020255265 -1.5661004141951185
| 26> C -1.9139766254897062 -0.29180251252593326 -0.27188281398145336
| 27> C -2.0813281885803163 -1.8387282866881347 -0.3096989242789524
| 28> H -3.8236666818449363 3.217438440571375 -1.9402619642702006
| 29> H -3.6299238868231765 1.5341917292430272 -2.4558141083060696
| 30> H -5.112044271945219 2.0415735639195356 -1.5880452987948914
| 31> H -5.184848972953467 -0.1055735215518394 -0.052989353835670744
| 32> H -3.803655022194798 1.1121433399817666 2.0869622998562525
| 33> H -4.00992172807341 -0.6206219584601016 1.9048785780316402
| 34> H -1.838807595944061 -1.0324972255928495 2.5097608026935294
| 35> H -1.6927280900209534 0.6756402972635639 2.9368373330615283
| 36> H -0.9164214620197443 1.2990454267771403 0.8089180448145045
| 37> H 0.2756051349512396 -1.482364910821846 0.9757654863669168
| 38> H 0.6441050424211796 -0.25246460596400955 3.0618387015369937
| 39> H 1.196872727772476 1.1638999870319235 2.1726764577918143
| 40> H 3.0999482914118355 -0.11470199908489867 3.0238309644426424
| 41> H 2.533217436560406 -1.5933059311611384 2.272230525858739
| 42> H 4.874983440609442 0.8732605805789455 1.8403179779601522
| 43> H 5.042341329293209 0.9156551595705743 -2.494102927407789
| 44> H 3.0131969478307967 -0.38769864855586356 -2.63100993628443
| 45> H 2.205866601631893 -2.487658925021178 -1.488258564785091
| 46> H 3.623568488438752 -2.521205759413408 -0.44279051635707284
| 47> H 2.0119700333024357 -2.611602716001103 0.2574544107049821
| 48> H 1.2170173432434257 1.0896625358096323 -0.4171523229804943
| 49> H 0.2264388258620453 -1.4249605287757925 -1.8381168387958482
| 50> H 0.8353350954729328 1.2045416142419187 -2.71073829511574
| 51> H -1.2082560843675012 1.250542165109016 -1.639486276048168
| 52> H -1.790292615049757 -0.18260925697219463 -2.4441167005625335
| 53> H -2.674487075796348 -2.1402806918341732 -1.1811297523396904
| 54> H -2.591772481281181 -2.2243140228960145 0.5786896469635194
| 55> H -1.1304491730226607 -2.372313277715686 -0.3816159082675075
| 56> *
| 57>
| 58>                          ****END OF INPUT****

CARTESIAN COORDINATES (ANGSTROEM)
---------------------------------
  C     -4.031105    2.177949   -1.670472
  C     -3.379703    1.862570   -0.345042
  O     -2.944847    2.773060    0.363522
  C     -3.287229    0.368384    0.068582
  O     -4.368175   -0.344682   -0.527061
  C     -3.372892    0.223103    1.612770
  C     -1.939477   -0.012545    2.121699
  C     -1.049797    0.210641    0.902326
  C      0.360547   -0.392626    0.910323
  C      1.152117    0.067223    2.144605
  C      2.563916   -0.504680    2.149865
  C      3.271439   -0.152297    0.867398
  C      4.412662    0.559123    0.911310
  C      5.113700    0.991851   -0.312989
  O      6.149638    1.642022   -0.259394
  C      4.510926    0.610427   -1.601083
  C      3.375775   -0.098979   -1.646186
  C      2.582877   -0.588606   -0.438876
  C      2.600718   -2.131924   -0.529642
  C      1.107300   -0.007629   -0.418844
  C      0.231936   -0.344734   -1.669355
  O      0.766783    0.243870   -2.854697
  C     -1.224995    0.155590   -1.566100
  C     -1.913977   -0.291803   -0.271883
  C     -2.081328   -1.838728   -0.309699
  H     -3.823667    3.217438   -1.940262
  H     -3.629924    1.534192   -2.455814
  H     -5.112044    2.041574   -1.588045
  H     -5.184849   -0.105574   -0.052989
  H     -3.803655    1.112143    2.086962
  H     -4.009922   -0.620622    1.904879
  H     -1.838808   -1.032497    2.509761
  H     -1.692728    0.675640    2.936837
  H     -0.916421    1.299045    0.808918
  H      0.275605   -1.482365    0.975765
  H      0.644105   -0.252465    3.061839
  H      1.196873    1.163900    2.172676
  H      3.099948   -0.114702    3.023831
  H      2.533217   -1.593306    2.272231
  H      4.874983    0.873261    1.840318
  H      5.042341    0.915655   -2.494103
  H      3.013197   -0.387699   -2.631010
  H      2.205867   -2.487659   -1.488259
  H      3.623568   -2.521206   -0.442791
  H      2.011970   -2.611603    0.257454
  H      1.217017    1.089663   -0.417152
  H      0.226439   -1.424961   -1.838117
  H      0.835335    1.204542   -2.710738
  H     -1.208256    1.250542   -1.639486
  H     -1.790293   -0.182609   -2.444117
  H     -2.674487   -2.140281   -1.181130
  H     -2.591772   -2.224314    0.578690
  H     -1.130449   -2.372313   -0.381616

 Total Charge           Charge          ....    0
 Multiplicity           Mult            ....    1
 Number of Electrons    NEL             ....  186
 Basis Dimension        Dim             ....  490

ORBITAL ENERGIES
----------------

  NO   OCC          E(Eh)            E(eV)
   0   2.0000     -20.574150      -559.8511
   1   2.0000     -20.560753      -559.4865
   2   2.0000     -20.557085      -559.3867
   3   2.0000     -20.515878      -558.2654
   4   2.0000     -11.346566      -308.7558
   5   2.0000     -11.313946      -307.8681
   6   2.0000     -11.311804      -307.8098
   7   2.0000     -11.299953      -307.4874
   8   2.0000     -11.275986      -306.8352
   9   2.0000     -11.266087      -306.5658
  10   2.0000     -11.260537      -306.4148
  11   2.0000     -11.258985      -306.3726
  12   2.0000     -11.255144      -306.2680
  13   2.0000     -11.247251      -306.0532
  14   2.0000     -11.246190      -306.0244
  15   2.0000     -11.244813      -305.9869
  16   2.0000     -11.242463      -305.9230
  17   2.0000     -11.241309      -305.8916
  18   2.0000     -11.238767      -305.8224
  19   2.0000     -11.237876      -305.7981
  20   2.0000     -11.236469      -305.7599
  21   2.0000     -11.235324      -305.7287
  22   2.0000     -11.232791      -305.6598
  23   2.0000     -11.231039      -305.6121
  24   2.0000     -11.230324      -305.5927
  25   2.0000      -1.380580       -37.5675
  26   2.0000      -1.361673       -37.0530
  27   2.0000      -1.353537       -36.8316
  28   2.0000      -1.343183       -36.5499
  29   2.0000      -1.172744       -31.9120
  30   2.0000      -1.149720       -31.2855
  31   2.0000      -1.084991       -29.5241
  32   2.0000      -1.067639       -29.0519
  33   2.0000      -1.045082       -28.4381
  34   2.0000      -1.023960       -27.8634
  35   2.0000      -1.013735       -27.5851
  36   2.0000      -0.989090       -26.9145
  37   2.0000      -0.971018       -26.4227
  38   2.0000      -0.943802       -25.6822
  39   2.0000      -0.929076       -25.2814
  40   2.0000      -0.905363       -24.6362
  41   2.0000      -0.863367       -23.4934
  42   2.0000      -0.839204       -22.8359
  43   2.0000      -0.824417       -22.4335
  44   2.0000      -0.811929       -22.0937
  45   2.0000      -0.794191       -21.6110
  46   2.0000      -0.773188       -21.0395
  47   2.0000      -0.760059       -20.6823
  48   2.0000      -0.731684       -19.9101
  49   2.0000      -0.698666       -19.0117
  50   2.0000      -0.688460       -18.7339
  51   2.0000      -0.687324       -18.7030
  52   2.0000      -0.677309       -18.4305
  53   2.0000      -0.663665       -18.0592
  54   2.0000      -0.650562       -17.7027
  55   2.0000      -0.645175       -17.5561
  56   2.0000      -0.643219       -17.5029
  57   2.0000      -0.631426       -17.1820
  58   2.0000      -0.625804       -17.0290
  59   2.0000      -0.617964       -16.8157
  60   2.0000      -0.614512       -16.7217
  61   2.0000      -0.604617       -16.4525
  62   2.0000      -0.599034       -16.3006
  63   2.0000      -0.596300       -16.2261
  64   2.0000      -0.589906       -16.0521
  65   2.0000      -0.581312       -15.8183
  66   2.0000      -0.575345       -15.6559
  67   2.0000      -0.567573       -15.4445
  68   2.0000      -0.561247       -15.2723
  69   2.0000      -0.557887       -15.1809
  70   2.0000      -0.552544       -15.0355
  71   2.0000      -0.545520       -14.8444
  72   2.0000      -0.542339       -14.7578
  73   2.0000      -0.531536       -14.4638
  74   2.0000      -0.525873       -14.3097
  75   2.0000      -0.521583       -14.1930
  76   2.0000      -0.511782       -13.9263
  77   2.0000      -0.510289       -13.8857
  78   2.0000      -0.505012       -13.7421
  79   2.0000      -0.502137       -13.6638
  80   2.0000      -0.497413       -13.5353
  81   2.0000      -0.489340       -13.3156
  82   2.0000      -0.482552       -13.1309
  83   2.0000      -0.480454       -13.0738
  84   2.0000      -0.462987       -12.5985
  85   2.0000      -0.458101       -12.4656
  86   2.0000      -0.452922       -12.3246
  87   2.0000      -0.442228       -12.0336
  88   2.0000      -0.422137       -11.4869
  89   2.0000      -0.408864       -11.1258
  90   2.0000      -0.397743       -10.8232
  91   2.0000      -0.368904       -10.0384
  92   2.0000      -0.360556        -9.8112
  93   0.0000       0.091387         2.4868
  94   0.0000       0.126913         3.4535
  95   0.0000       0.143281         3.8989
  96   0.0000       0.154911         4.2153
  97   0.0000       0.166872         4.5408

MULLIKEN ATOMIC CHARGES
-----------------------
   0 C :    0.029746
   1 C :    0.191989
   2 O :   -0.387295
   3 C :    0.066212
   4 O :   -0.447804
   5 C :    0.090827
   6 C :    0.079999
   7 C :   -0.107300
   8 C :   -0.116735
   9 C :    0.021248
  10 C :    0.134794
  11 C :   -0.066749
  12 C :   -0.110914
  13 C :    0.312018
  14 O :   -0.400879
  15 C :   -0.118841
  16 C :    0.086638
  17 C :   -0.350482
  18 C :    0.070632
  19 C :   -0.051579
  20 C :    0.291418
  21 O :   -0.469764
  22 C :    0.124846
  23 C :   -0.493949
  24 C :    0.111752
  25 H :    0.061549
  26 H :    0.059117
  27 H :    0.056806
  28 H :    0.204598
  29 H :    0.048203
  30 H :    0.034188
  31 H :    0.022939
  32 H :    0.041947
  33 H :    0.057200
  34 H :    0.028625
  35 H :    0.041397
  36 H :    0.033462
  37 H :    0.036947
  38 H :    0.039363
  39 H :    0.037706
  40 H :    0.048104
  41 H :    0.080255
  42 H :    0.047928
  43 H :    0.051849
  44 H :    0.037264
  45 H :    0.023926
  46 H :    0.033255
  47 H :    0.200448
  48 H :    0.015677
  49 H :    0.054073
  50 H :    0.052176
  51 H :    0.030239
  52 H :    0.030932
Sum of atomic charges:    0.0000000

LOEWDIN ATOMIC CHARGES
----------------------
   0 C :   -0.047799
   1 C :    0.157342
   2 O :   -0.245978
   3 C :    0.051679
   4 O :   -0.171626
   5 C :   -0.013158
   6 C :   -0.003923
   7 C :   -0.017183
   8 C :   -0.016196
   9 C :   -0.003201
  10 C :   -0.002959
  11 C :    0.026991
  12 C :   -0.079511
  13 C :    0.133737
  14 O :   -0.260518
  15 C :   -0.078067
  16 C :    0.039711
  17 C :   -0.037188
  18 C :   -0.011721
  19 C :   -0.011385
  20 C :    0.117398
  21 O :   -0.179374
  22 C :   -0.014502
  23 C :   -0.047415
  24 C :   -0.014290
  25 H :    0.034264
  26 H :    0.034938
  27 H :    0.037292
  28 H :    0.087498
  29 H :    0.022496
  30 H :    0.017114
  31 H :    0.010020
  32 H :    0.018843
  33 H :    0.020102
  34 H :    0.007791
  35 H :    0.018317
  36 H :    0.017089
  37 H :    0.025031
  38 H :    0.021069
  39 H :    0.032307
  40 H :    0.034659
  41 H :    0.033430
  42 H :    0.021306
  43 H :    0.027670
  44 H :    0.013149
  45 H :    0.013535
  46 H :    0.011408
  47 H :    0.083238
  48 H :    0.008294
  49 H :    0.021874
  50 H :    0.026941
  51 H :    0.018195
  52 H :    0.011268

  Mayer bond orders larger than 0.100000
B(  0-C ,  1-C ) :   1.0020 B(  0-C , 25-H ) :   0.9794 B(  0-C , 26-H ) :   0.9702
B(  0-C , 27-H ) :   0.9618 B(  1-C ,  2-O ) :   2.0195 B(  1-C ,  3-C ) :   0.8476
B(  3-C ,  4-O ) :   0.9248 B(  3-C ,  5-C ) :   1.0138 B(  3-C , 23-C ) :   0.9522
B(  4-O , 28-H ) :   0.9669 B(  5-C ,  6-C ) :   1.0721 B(  5-C , 29-H ) :   0.9548
B(  5-C , 30-H ) :   0.9640 B(  6-C ,  7-C ) :   1.0212 B(  6-C , 31-H ) :   0.9655
B(  6-C , 32-H ) :   0.9612 B(  7-C ,  8-C ) :   0.9981 B(  7-C , 23-C ) :   0.9294
B(  7-C , 33-H ) :   0.9496 B(  8-C ,  9-C ) :   1.0184 B(  8-C , 19-C ) :   0.9664
B(  8-C , 34-H ) :   0.9455 B(  9-C , 10-C ) :   1.0436 B(  9-C , 35-H ) :   0.9685
B(  9-C , 36-H ) :   0.9632 B( 10-C , 11-C ) :   0.9936 B( 10-C , 37-H ) :   0.9698
B( 10-C , 38-H ) :   0.9638 B( 11-C , 12-C ) :   1.8638 B( 11-C , 17-C ) :   0.9421
B( 12-C , 13-C ) :   1.0161 B( 12-C , 39-H ) :   1.0068 B( 13-C , 14-O ) :   1.9409
B( 13-C , 15-C ) :   1.0082 B( 15-C , 16-C ) :   1.8572 B( 15-C , 40-H ) :   1.0061
B( 16-C , 17-C ) :   0.9726 B( 16-C , 41-H ) :   0.9764 B( 17-C , 18-C ) :   0.9885
B( 17-C , 19-C ) :   0.9725 B( 18-C , 42-H ) :   0.9839 B( 18-C , 43-H ) :   0.9816
B( 18-C , 44-H ) :   0.9836 B( 19-C , 20-C ) :   0.9732 B( 19-C , 45-H ) :   0.9409
B( 20-C , 21-O ) :   0.8639 B( 20-C , 22-C ) :   1.0504 B( 20-C , 46-H ) :   0.9538
B( 21-O , 47-H ) :   0.9647 B( 22-C , 23-C ) :   0.9825 B( 22-C , 48-H ) :   0.9507
B( 22-C , 49-H ) :   0.9662 B( 23-C , 24-C ) :   0.9889 B( 24-C , 50-H ) :   0.9777
B( 24-C , 51-H ) :   0.9840 B( 24-C , 52-H ) :   0.9847

FINAL SINGLE POINT ENERGY     -1110.127663539929

DIPOLE MOMENT
-------------
                                X             Y             Z
Electronic contribution:     12.51953       9.08556      -3.31421
Nuclear contribution   :    -15.19812     -10.46140       3.74935
                        -----------------------------------------
Total Dipole Moment    :     -2.67859      -1.37584       0.43515
                        -----------------------------------------
Magnitude (a.u.)       :      3.04256
Magnitude (Debye)      :      7.73357

Rotational constants in cm-1:     0.015432     0.004413     0.004174
Rotational constants in MHz :   462.626435   132.284350   125.120201

                             ****ORCA TERMINATED NORMALLY****
TOTAL RUN TIME: 0 days 0 hours 0 minutes 55 seconds 27 msec
