                         Program Version 5.0.3 -  RELEASE  -
|  1> !RHF def2-SVP TightSCF PAL16
|  2> *xyz 0 1
|  3> C 5.687493848546411 1.6930419797735698 -0.2987757953922267
|  4> O 4.590493919350063 1.3868175818875157 -1.1509553888435085
|  5> C 3.6374854083946557 0.5418430080121516 -0.6538515939939109
|  6> C 2.617190453638754 0.22130622775226774 -1.5551573565392298
|  7> C 1.5747859338729964 -0.6299457781893109 -1.1808571511934456
|  8> C 1.540916042600735 -1.154304329190228 0.1146938343432972
|  9> C 0.4521794498043864 -2.067611139359071 0.5482222733517348
| 10> O 0.7715454208120854 -3.0463009954754536 1.2196438987610099
| 11> C -0.9182505988667654 -1.7901895045194078 0.16083459573727507
| 12> C -1.9193140195501015 -2.723633584449023 -0.10754272718075959
| 13> C -3.127803680025749 -2.039221501594983 -0.42333061882053563
| 14> C -2.8463903788162352 -0.7063605130299253 -0.2952092613670917
| 15> N -1.5271665945165769 -0.5799909387391484 0.03836475230282637
| 16> C -1.144459339586377 0.7988125215160522 0.29182356612437643
| 17> C -2.503291371589643 1.504328855206174 0.41765564337216654
| 18> C -3.511181820266431 0.6245423464411531 -0.37103068172923626
| 19> C -4.897845699410711 0.6436937564530502 0.23921369369864173
| 20> O -5.659938126393638 -0.29135680939974223 0.42018009519069227
| 21> O -5.3132417284544005 1.8984274418263112 0.5265333177704836
| 22> C 2.5708772167640364 -0.8547712268023387 1.0130252072862065
| 23> C 3.6131304772911137 -0.002769338676179207 0.6312942003765255
| 24> H 5.3535821747804135 2.2302869349532055 0.5949848662498504
| 25> H 6.364813882836517 2.352514500067464 -0.849901721894224
| 26> H 6.245673109970793 0.7893608501933858 -0.03241569243946453
| 27> H 2.6434237492173986 0.6306383375826126 -2.5628259448955424
| 28> H 0.8080093613316937 -0.8859995243343634 -1.908119156485216
| 29> H -1.7824750349432452 -3.7982444701540112 -0.07214648112682116
| 30> H -4.08670822361301 -2.4812097004961466 -0.6643706590760514
| 31> H -0.5861791342046724 1.1572076665414714 -0.5767152675366671
| 32> H -0.5501312717931902 0.8575462947726468 1.2063355302239593
| 33> H -2.4676808109575257 2.5315433892966333 0.04012151607129453
| 34> H -2.784613477845483 1.5594586843916438 1.4780806201860472
| 35> H -3.5785186713956487 0.94770760238837 -1.415906026480196
| 36> H -6.221638130804686 1.7610805008150268 0.8712411630150655
| 37> H 2.5650694755943966 -1.2868413566625072 2.012219054019193
| 38> H 4.390158188274081 0.20859223104348018 1.3587425114709482
| 39> *
| 40>
| 41>                          ****END OF INPUT****

CARTESIAN COORDINATES (ANGSTROEM)
---------------------------------
  C      5.687494    1.693042   -0.298776
  O      4.590494    1.386818   -1.150955
  C      3.637485    0.541843   -0.653852
  C      2.617190    0.221306   -1.555157
  C      1.574786   -0.629946   -1.180857
  C      1.540916   -1.154304    0.114694
  C      0.452179   -2.067611    0.548222
  O      0.771545   -3.046301    1.219644
  C     -0.918251   -1.790190    0.160835
  C     -1.919314   -2.723634   -0.107543
  C     -3.127804   -2.039222   -0.423331
  C     -2.846390   -0.706361   -0.295209
  N     -1.527167   -0.579991    0.038365
  C     -1.144459    0.798813    0.291824
  C     -2.503291    1.504329    0.417656
  C     -3.511182    0.624542   -0.371031
  C     -4.897846    0.643694    0.239214
  O     -5.659938   -0.291357    0.420180
  O     -5.313242    1.898427    0.526533
  C      2.570877   -0.854771    1.013025
  C      3.613130   -0.002769    0.631294
  H      5.353582    2.230287    0.594985
  H      6.364814    2.352515   -0.849902
  H      6.245673    0.789361   -0.032416
  H      2.643424    0.630638   -2.562826
  H      0.808009   -0.886000   -1.908119
  H     -1.782475   -3.798244   -0.072146
  H     -4.086708   -2.481210   -0.664371
  H     -0.586179    1.157208   -0.576715
  H     -0.550131    0.857546    1.206336
  H     -2.467681    2.531543    0.040122
  H     -2.784613    1.559459    1.478081
  H     -3.578519    0.947708   -1.415906
  H     -6.221638    1.761081    0.871241
  H      2.565069   -1.286841    2.012219
  H      4.390158    0.208592    1.358743

 Total Charge           Charge          ....    0
 Multiplicity           Mult            ....    1
 Number of Electrons    NEL             ....  150
 Basis Dimension        Dim             ....  369

ORBITAL ENERGIES
----------------

  NO   OCC          E(Eh)            E(eV)
   0   2.0000     -20.618024      -561.0450
   1   2.0000     -20.589352      -560.2648
   2   2.0000     -20.556979      -559.3838
   3   2.0000     -20.527642      -558.5855
   4   2.0000     -15.617864      -424.9837
   5   2.0000     -11.405872      -310.3695
   6   2.0000     -11.332404      -308.3704
   7   2.0000     -11.318965      -308.0047
   8   2.0000     -11.301677      -307.5343
   9   2.0000     -11.292818      -307.2932
  10   2.0000     -11.283961      -307.0522
  11   2.0000     -11.272557      -306.7419
  12   2.0000     -11.265782      -306.5575
  13   2.0000     -11.259628      -306.3901
  14   2.0000     -11.259361      -306.3828
  15   2.0000     -11.258726      -306.3655
  16   2.0000     -11.248176      -306.0784
  17   2.0000     -11.243157      -305.9419
  18   2.0000     -11.242095      -305.9130
  19   2.0000     -11.229066      -305.5584
  20   2.0000     -11.218937      -305.2828
  21   2.0000      -1.461033       -39.7567
  22   2.0000      -1.402665       -38.1684
  23   2.0000      -1.355602       -36.8878
  24   2.0000      -1.345363       -36.6092
  25   2.0000      -1.324544       -36.0427
  26   2.0000      -1.154413       -31.4132
  27   2.0000      -1.128213       -30.7002
  28   2.0000      -1.074231       -29.2313
  29   2.0000      -1.038235       -28.2518
  30   2.0000      -1.023319       -27.8459
  31   2.0000      -0.989447       -26.9242
  32   2.0000      -0.967716       -26.3329
  33   2.0000      -0.947094       -25.7717
  34   2.0000      -0.872058       -23.7299
  35   2.0000      -0.867628       -23.6094
  36   2.0000      -0.837866       -22.7995
  37   2.0000      -0.828154       -22.5352
  38   2.0000      -0.798736       -21.7347
  39   2.0000      -0.774532       -21.0761
  40   2.0000      -0.739913       -20.1341
  41   2.0000      -0.727410       -19.7938
  42   2.0000      -0.718370       -19.5478
  43   2.0000      -0.707450       -19.2507
  44   2.0000      -0.703000       -19.1296
  45   2.0000      -0.680944       -18.5294
  46   2.0000      -0.666434       -18.1346
  47   2.0000      -0.662753       -18.0344
  48   2.0000      -0.653764       -17.7898
  49   2.0000      -0.633754       -17.2453
  50   2.0000      -0.630648       -17.1608
  51   2.0000      -0.605454       -16.4752
  52   2.0000      -0.602691       -16.4001
  53   2.0000      -0.600250       -16.3336
  54   2.0000      -0.598817       -16.2947
  55   2.0000      -0.591337       -16.0911
  56   2.0000      -0.581059       -15.8114
  57   2.0000      -0.572059       -15.5665
  58   2.0000      -0.566387       -15.4122
  59   2.0000      -0.558569       -15.1994
  60   2.0000      -0.540206       -14.6998
  61   2.0000      -0.536117       -14.5885
  62   2.0000      -0.533316       -14.5123
  63   2.0000      -0.519146       -14.1267
  64   2.0000      -0.514891       -14.0109
  65   2.0000      -0.502147       -13.6641
  66   2.0000      -0.495237       -13.4761
  67   2.0000      -0.486425       -13.2363
  68   2.0000      -0.471830       -12.8392
  69   2.0000      -0.462343       -12.5810
  70   2.0000      -0.421862       -11.4794
  71   2.0000      -0.354664        -9.6509
  72   2.0000      -0.345876        -9.4118
  73   2.0000      -0.325352        -8.8533
  74   2.0000      -0.306927        -8.3519
  75   0.0000       0.084825         2.3082
  76   0.0000       0.113890         3.0991
  77   0.0000       0.137499         3.7415
  78   0.0000       0.151258         4.1159
  79   0.0000       0.172785         4.7017

MULLIKEN ATOMIC CHARGES
-----------------------
   0 C :    0.222287
   1 O :   -0.546920
   2 C :    0.344987
   3 C :   -0.087451
   4 C :    0.027175
   5 C :   -0.232670
   6 C :    0.388084
   7 O :   -0.389794
   8 C :    0.058130
   9 C :   -0.031584
  10 C :   -0.101545
  11 C :    0.149376
  12 N :   -0.556444
  13 C :    0.269362
  14 C :   -0.027918
  15 C :   -0.169695
  16 C :    0.520924
  17 O :   -0.392798
  18 O :   -0.357649
  19 C :    0.056619
  20 C :   -0.157658
  21 H :    0.034482
  22 H :    0.053947
  23 H :    0.038631
  24 H :    0.049395
  25 H :    0.057782
  26 H :    0.049065
  27 H :    0.047621
  28 H :    0.057743
  29 H :    0.061906
  30 H :    0.062414
  31 H :    0.066299
  32 H :    0.101806
  33 H :    0.229586
  34 H :    0.062713
  35 H :    0.041792
Sum of atomic charges:   -0.0000000

LOEWDIN ATOMIC CHARGES
----------------------
   0 C :    0.133444
   1 O :   -0.195018
   2 C :    0.111622
   3 C :   -0.055740
   4 C :    0.012506
   5 C :   -0.104385
   6 C :    0.151257
   7 O :   -0.250397
   8 C :   -0.071297
   9 C :   -0.014061
  10 C :   -0.082205
  11 C :    0.015759
  12 N :   -0.006874
  13 C :    0.093178
  14 C :    0.004065
  15 C :   -0.044118
  16 C :    0.221250
  17 O :   -0.267088
  18 O :   -0.113138
  19 C :    0.038468
  20 C :   -0.086935
  21 H :    0.008450
  22 H :    0.022538
  23 H :    0.010490
  24 H :    0.034379
  25 H :    0.033997
  26 H :    0.031410
  27 H :    0.031543
  28 H :    0.016810
  29 H :    0.024656
  30 H :    0.027894
  31 H :    0.029460
  32 H :    0.051613
  33 H :    0.117182
  34 H :    0.040535
  35 H :    0.028750

  Mayer bond orders larger than 0.100000
B(  0-C ,  1-O ) :   0.8647 B(  0-C , 21-H ) :   0.9850 B(  0-C , 22-H ) :   0.9929
B(  0-C , 23-H ) :   0.9851 B(  1-O ,  2-C ) :   1.0074 B(  2-C ,  3-C ) :   1.3835
B(  2-C , 20-C ) :   1.3434 B(  3-C ,  4-C ) :   1.4457 B(  3-C , 24-H ) :   1.0053
B(  4-C ,  5-C ) :   1.3742 B(  4-C , 25-H ) :   1.0008 B(  5-C ,  6-C ) :   0.9701
B(  5-C , 19-C ) :   1.4264 B(  6-C ,  7-O ) :   2.0583 B(  6-C ,  8-C ) :   0.9662
B(  8-C ,  9-C ) :   1.5341 B(  8-C , 12-N ) :   1.0808 B(  9-C , 10-C ) :   1.3327
B(  9-C , 26-H ) :   1.0094 B( 10-C , 11-C ) :   1.5850 B( 10-C , 27-H ) :   1.0160
B( 11-C , 12-N ) :   1.1753 B( 11-C , 15-C ) :   0.9155 B( 12-N , 13-C ) :   0.8287
B( 13-C , 14-C ) :   1.0408 B( 13-C , 28-H ) :   0.9682 B( 13-C , 29-H ) :   0.9817
B( 14-C , 15-C ) :   1.0256 B( 14-C , 30-H ) :   0.9712 B( 14-C , 31-H ) :   0.9694
B( 15-C , 16-C ) :   0.9608 B( 15-C , 32-H ) :   0.8992 B( 16-C , 17-O ) :   2.0262
B( 16-C , 18-O ) :   1.1314 B( 18-O , 33-H ) :   0.9400 B( 19-C , 20-C ) :   1.4021
B( 19-C , 34-H ) :   0.9993 B( 20-C , 35-H ) :   1.0080

FINAL SINGLE POINT ENERGY      -967.786587189148

DIPOLE MOMENT
-------------
                                X             Y             Z
Electronic contribution:     -9.97606      -7.37473       0.19896
Nuclear contribution   :     10.53291       9.81512      -0.40457
                        -----------------------------------------
Total Dipole Moment    :      0.55685       2.44038      -0.20561
                        -----------------------------------------
Magnitude (a.u.)       :      2.51154
Magnitude (Debye)      :      6.38383

Rotational constants in cm-1:     0.022042     0.004937     0.004312
Rotational constants in MHz :   660.789117   148.005130   129.264305

                             ****ORCA TERMINATED NORMALLY****
TOTAL RUN TIME: 0 days 0 hours 0 minutes 20 seconds 427 msec
