                         Program Version 5.0.3 -  RELEASE  -
|  1> !RHF def2-SVP TightSCF PAL16
|  2> *xyz 0 1
|  3> C -4.847589114641131 -0.8910646925965763 -0.5656752315407126
|  4> O -3.660679018093862 -0.8210849549203717 -1.3463068134598601
|  5> C -2.519561486089111 -0.4280128931803735 -0.7041600533736526
|  6> C -2.4125463886735306 -0.08467121248305914 0.6439174982379641
|  7> C -1.1762682229982018 0.30165939026502314 1.1737689037411487
|  8> C -0.036831767004468184 0.3333050599955369 0.3614788955842804
|  9> C 1.2461404580119662 0.7726897240956755 0.9645108641539818
| 10> O 1.2348631621717214 1.6708252398583383 1.8039880026746882
| 11> C 2.52673297555009 0.12153306519695987 0.5409473380307178
| 12> Br 2.547840533539863 -1.7267741655848061 0.2898715164920332
| 13> C 3.563249723972667 0.9655421012482873 0.42007164079783804
| 14> C 4.941376635363258 0.6465237431368462 0.05031355152368763
| 15> O 5.670807308317681 1.4020798369284333 -0.5667694980966086
| 16> O 5.381045061480997 -0.5274189206812839 0.5154702517186467
| 17> C -0.1459052657780637 0.012753833447449719 -0.9948216802443752
| 18> C -1.3834541425893518 -0.37315322358460185 -1.5173356877988502
| 19> H -5.117911809086306 0.0934166043218108 -0.16974641895063478
| 20> H -5.659595109462604 -1.2207445979007119 -1.2209395177659241
| 21> H -4.748370435725705 -1.6277952904881967 0.2383470667137706
| 22> H -3.2692294753749107 -0.1010081112855583 1.309739484116132
| 23> H -1.1063252996661115 0.5784971490412015 2.224366020738611
| 24> H 3.415310461172328 2.0338646528229565 0.5605477442949162
| 25> H 6.315117135648076 -0.5720952125834423 0.2231280375351276
| 26> H 0.7091027848637831 0.06877801703742865 -1.6628299203793673
| 27> H -1.4673187049098888 -0.6276451421068959 -2.571881994744361
| 28> *
| 29>
| 30>                          ****END OF INPUT****

CARTESIAN COORDINATES (ANGSTROEM)
---------------------------------
  C     -4.847589   -0.891065   -0.565675
  O     -3.660679   -0.821085   -1.346307
  C     -2.519561   -0.428013   -0.704160
  C     -2.412546   -0.084671    0.643917
  C     -1.176268    0.301659    1.173769
  C     -0.036832    0.333305    0.361479
  C      1.246140    0.772690    0.964511
  O      1.234863    1.670825    1.803988
  C      2.526733    0.121533    0.540947
  Br     2.547841   -1.726774    0.289872
  C      3.563250    0.965542    0.420072
  C      4.941377    0.646524    0.050314
  O      5.670807    1.402080   -0.566769
  O      5.381045   -0.527419    0.515470
  C     -0.145905    0.012754   -0.994822
  C     -1.383454   -0.373153   -1.517336
  H     -5.117912    0.093417   -0.169746
  H     -5.659595   -1.220745   -1.220940
  H     -4.748370   -1.627795    0.238347
  H     -3.269229   -0.101008    1.309739
  H     -1.106325    0.578497    2.224366
  H      3.415310    2.033865    0.560548
  H      6.315117   -0.572095    0.223128
  H      0.709103    0.068778   -1.662830
  H     -1.467319   -0.627645   -2.571882

 Total Charge           Charge          ....    0
 Multiplicity           Mult            ....    1
 Number of Electrons    NEL             ....  142
 Basis Dimension        Dim             ....  287

ORBITAL ENERGIES
----------------

  NO   OCC          E(Eh)            E(eV)
   0   2.0000    -490.000212    -13333.5836
   1   2.0000     -65.168721     -1773.3311
   2   2.0000     -58.540827     -1592.9769
   3   2.0000     -58.539122     -1592.9305
   4   2.0000     -58.538994     -1592.9270
   5   2.0000     -20.619509      -561.0854
   6   2.0000     -20.593251      -560.3708
   7   2.0000     -20.562006      -559.5206
   8   2.0000     -20.556586      -559.3731
   9   2.0000     -11.406803      -310.3949
  10   2.0000     -11.362633      -309.1930
  11   2.0000     -11.334242      -308.4204
  12   2.0000     -11.324624      -308.1587
  13   2.0000     -11.303814      -307.5924
  14   2.0000     -11.289363      -307.1992
  15   2.0000     -11.267872      -306.6144
  16   2.0000     -11.267118      -306.5939
  17   2.0000     -11.252495      -306.1960
  18   2.0000     -11.252166      -306.1870
  19   2.0000     -11.247004      -306.0465
  20   2.0000      -9.860650      -268.3219
  21   2.0000      -7.477912      -203.4843
  22   2.0000      -7.468133      -203.2182
  23   2.0000      -7.467571      -203.2029
  24   2.0000      -3.220828       -87.6432
  25   2.0000      -3.216528       -87.5262
  26   2.0000      -3.215737       -87.5046
  27   2.0000      -3.205104       -87.2153
  28   2.0000      -3.205095       -87.2151
  29   2.0000      -1.466223       -39.8980
  30   2.0000      -1.406403       -38.2702
  31   2.0000      -1.384951       -37.6864
  32   2.0000      -1.351095       -36.7652
  33   2.0000      -1.163438       -31.6588
  34   2.0000      -1.144148       -31.1338
  35   2.0000      -1.045161       -28.4403
  36   2.0000      -1.030890       -28.0519
  37   2.0000      -1.027437       -27.9580
  38   2.0000      -0.959100       -26.0984
  39   2.0000      -0.931437       -25.3457
  40   2.0000      -0.859865       -23.3981
  41   2.0000      -0.844274       -22.9739
  42   2.0000      -0.805811       -21.9272
  43   2.0000      -0.767010       -20.8714
  44   2.0000      -0.734674       -19.9915
  45   2.0000      -0.716367       -19.4933
  46   2.0000      -0.701464       -19.0878
  47   2.0000      -0.685984       -18.6666
  48   2.0000      -0.678655       -18.4671
  49   2.0000      -0.669102       -18.2072
  50   2.0000      -0.659282       -17.9400
  51   2.0000      -0.640246       -17.4220
  52   2.0000      -0.639511       -17.4020
  53   2.0000      -0.610106       -16.6018
  54   2.0000      -0.609231       -16.5780
  55   2.0000      -0.597066       -16.2470
  56   2.0000      -0.573988       -15.6190
  57   2.0000      -0.557951       -15.1826
  58   2.0000      -0.551921       -15.0185
  59   2.0000      -0.539294       -14.6749
  60   2.0000      -0.532999       -14.5036
  61   2.0000      -0.503858       -13.7107
  62   2.0000      -0.499940       -13.6040
  63   2.0000      -0.488492       -13.2926
  64   2.0000      -0.480007       -13.0617
  65   2.0000      -0.472880       -12.8677
  66   2.0000      -0.456463       -12.4210
  67   2.0000      -0.424323       -11.5464
  68   2.0000      -0.385533       -10.4909
  69   2.0000      -0.357708        -9.7337
  70   2.0000      -0.331957        -9.0330
  71   0.0000       0.042257         1.1499
  72   0.0000       0.100933         2.7465
  73   0.0000       0.112699         3.0667
  74   0.0000       0.151770         4.1299
  75   0.0000       0.173993         4.7346

MULLIKEN ATOMIC CHARGES
-----------------------
   0 C :    0.220430
   1 O :   -0.544515
   2 C :    0.350569
   3 C :   -0.161291
   4 C :    0.064527
   5 C :   -0.210158
   6 C :    0.402100
   7 O :   -0.370540
   8 C :   -0.132975
   9 Br:    0.039656
  10 C :   -0.085657
  11 C :    0.496622
  12 O :   -0.398635
  13 O :   -0.333336
  14 C :    0.054116
  15 C :   -0.090589
  16 H :    0.038431
  17 H :    0.055731
  18 H :    0.037450
  19 H :    0.044249
  20 H :    0.065009
  21 H :    0.120262
  22 H :    0.229672
  23 H :    0.054892
  24 H :    0.053981
Sum of atomic charges:   -0.0000000

LOEWDIN ATOMIC CHARGES
----------------------
   0 C :    0.133728
   1 O :   -0.192235
   2 C :    0.119673
   3 C :   -0.087263
   4 C :    0.047026
   5 C :   -0.117530
   6 C :    0.161491
   7 O :   -0.226199
   8 C :   -0.135895
   9 Br:    0.155377
  10 C :   -0.026242
  11 C :    0.192025
  12 O :   -0.266264
  13 O :   -0.092378
  14 C :    0.019909
  15 C :   -0.051715
  16 H :    0.010246
  17 H :    0.023422
  18 H :    0.009893
  19 H :    0.029961
  20 H :    0.041455
  21 H :    0.063872
  22 H :    0.118602
  23 H :    0.032269
  24 H :    0.036772

  Mayer bond orders larger than 0.100000
B(  0-C ,  1-O ) :   0.8623 B(  0-C , 16-H ) :   0.9852 B(  0-C , 17-H ) :   0.9928
B(  0-C , 18-H ) :   0.9851 B(  1-O ,  2-C ) :   1.0139 B(  2-C ,  3-C ) :   1.3412
B(  2-C , 15-C ) :   1.3792 B(  3-C ,  4-C ) :   1.4115 B(  3-C , 19-H ) :   1.0075
B(  4-C ,  5-C ) :   1.4250 B(  4-C , 20-H ) :   0.9979 B(  5-C ,  6-C ) :   0.9787
B(  5-C , 14-C ) :   1.3548 B(  6-C ,  7-O ) :   2.0380 B(  6-C ,  8-C ) :   0.9364
B(  8-C ,  9-Br) :   1.0427 B(  8-C , 10-C ) :   1.8851 B( 10-C , 11-C ) :   0.9788
B( 10-C , 21-H ) :   0.9626 B( 11-C , 12-O ) :   1.9859 B( 11-C , 13-O ) :   1.1617
B( 13-O , 22-H ) :   0.9403 B( 14-C , 15-C ) :   1.4713 B( 14-C , 23-H ) :   0.9954
B( 15-C , 24-H ) :   1.0034

FINAL SINGLE POINT ENERGY     -3292.759095098004

DIPOLE MOMENT
-------------
                                X             Y             Z
Electronic contribution:     31.72613     -15.57920       3.56846
Nuclear contribution   :    -32.88370      14.50758      -3.59788
                        -----------------------------------------
Total Dipole Moment    :     -1.15757      -1.07163      -0.02942
                        -----------------------------------------
Magnitude (a.u.)       :      1.57773
Magnitude (Debye)      :      4.01026

Rotational constants in cm-1:     0.032477     0.006225     0.005813
Rotational constants in MHz :   973.632384   186.629590   174.255247

                             ****ORCA TERMINATED NORMALLY****
TOTAL RUN TIME: 0 days 0 hours 0 minutes 10 seconds 841 msec
