                         Program Version 5.0.3 -  RELEASE  -
|  1> !RHF def2-SVP TightSCF PAL16
|  2> *xyz 0 1
|  3> C -5.294770793622039 0.4938244008594978 -0.1473312947489147
|  4> C -4.34897825995027 -0.684239464855303 -0.3307439788818425
|  5> C -2.996418171726916 -0.49591337141699504 0.38093359166575486
|  6> C -2.125431944063453 -1.7784036519695348 0.24573522929177152
|  7> O -2.3887497588469495 -2.6482520756642898 1.3260915641511397
|  8> N -0.6872670317882005 -1.4498117627259102 0.24526799758958806
|  9> C -0.4436887936384884 -0.45739141841798975 1.3357303598056447
| 10> C 1.0481891569852386 -0.22197342298894757 1.464795809011352
| 11> C 1.288774866323677 0.6910865421094292 0.26284743125717225
| 12> C 2.7403542412351967 0.9665437166145151 0.07111254712198223
| 13> C 3.568307013714156 1.8647071322462632 0.7220597009894147
| 14> C 4.934492585863897 1.8297522991100215 0.4360672502647317
| 15> C 5.452410527103561 0.8973961879105703 -0.47724826074651056
| 16> C 4.610217420195061 -0.01014893251326841 -1.1259018776669028
| 17> C 3.253140311079763 0.03534172025370291 -0.8541307889627883
| 18> N 2.25076254560462 -0.7870343020593367 -1.4599539638388235
| 19> C 2.406884770708543 -2.200698186853037 -1.1445975935386996
| 20> C 1.01646085598104 -0.05275656467195898 -1.0728664367182297
| 21> C -0.34216283847873696 -0.8096548061828504 -1.0772461122264505
| 22> C -1.4616041158296713 0.2121808498074028 -1.444874846776749
| 23> C -2.128660883501089 0.6850688023427549 -0.14268264863161273
| 24> C -1.0329280898123905 0.9352110260869486 0.9363805733851528
| 25> C 0.203237235834645 1.7661623948424143 0.47434550848919244
| 26> O 0.5604500917166808 2.649327908614216 1.5415228537643668
| 27> H -5.435460416154465 0.7249860507680062 0.9131832341127762
| 28> H -4.924233340494861 1.3901263475063956 -0.6523786504582855
| 29> H -6.274774372205789 0.25694013389091747 -0.5741951409970447
| 30> H -4.20991081963322 -0.8660571247384042 -1.401791805026823
| 31> H -4.8370570688174155 -1.5799051115347915 0.07385510505717689
| 32> H -3.2271955961761667 -0.3208984017490865 1.442157796521277
| 33> H -2.3742382930199963 -2.3383327978519217 -0.6643396757252367
| 34> H -1.5515012817537506 -3.1341822009837217 1.4237159821362382
| 35> H -0.8428495688015858 -0.8168605342583803 2.291490607072298
| 36> H 1.6222573803459004 -1.1521192347061815 1.4642223526879485
| 37> H 1.284919111911521 0.2860909178803153 2.408960639895422
| 38> H 3.1742951439249674 2.5629450472028656 1.4535905906411073
| 39> H 5.606559723934764 2.5238001880261867 0.9349134613993345
| 40> H 6.519218815682416 0.8842342322490611 -0.6854478458610502
| 41> H 5.009337133420996 -0.71487424176964 -1.8464857300584245
| 42> H 2.411560607711817 -2.4009193997835556 -0.07008018450643877
| 43> H 1.6002486283928445 -2.7842632033712467 -1.5984803617642038
| 44> H 3.3411758136127396 -2.5881641056085263 -1.566562510225447
| 45> H 0.9461441989851241 0.7101424964617934 -1.8662567379327586
| 46> H -0.32117528806752216 -1.5801760279940456 -1.8570609657005284
| 47> H -1.079777080511547 1.0703545697378487 -2.008249605446913
| 48> H -2.1940426020739046 -0.26258998733354655 -2.1078068979105726
| 49> H -2.7121792756125283 1.5946915088939035 -0.3073000754397257
| 50> H -1.4996023688421976 1.3934748827374293 1.8180322685071206
| 51> H 0.018326767306240978 2.38222835820642 -0.41069022269340755
| 52> H -0.13306689415248923 3.329002617643955 1.6051670048059778
| 53> *
| 54>
| 55>                          ****END OF INPUT****

CARTESIAN COORDINATES (ANGSTROEM)
---------------------------------
  C     -5.294771    0.493824   -0.147331
  C     -4.348978   -0.684239   -0.330744
  C     -2.996418   -0.495913    0.380934
  C     -2.125432   -1.778404    0.245735
  O     -2.388750   -2.648252    1.326092
  N     -0.687267   -1.449812    0.245268
  C     -0.443689   -0.457391    1.335730
  C      1.048189   -0.221973    1.464796
  C      1.288775    0.691087    0.262847
  C      2.740354    0.966544    0.071113
  C      3.568307    1.864707    0.722060
  C      4.934493    1.829752    0.436067
  C      5.452411    0.897396   -0.477248
  C      4.610217   -0.010149   -1.125902
  C      3.253140    0.035342   -0.854131
  N      2.250763   -0.787034   -1.459954
  C      2.406885   -2.200698   -1.144598
  C      1.016461   -0.052757   -1.072866
  C     -0.342163   -0.809655   -1.077246
  C     -1.461604    0.212181   -1.444875
  C     -2.128661    0.685069   -0.142683
  C     -1.032928    0.935211    0.936381
  C      0.203237    1.766162    0.474346
  O      0.560450    2.649328    1.541523
  H     -5.435460    0.724986    0.913183
  H     -4.924233    1.390126   -0.652379
  H     -6.274774    0.256940   -0.574195
  H     -4.209911   -0.866057   -1.401792
  H     -4.837057   -1.579905    0.073855
  H     -3.227196   -0.320898    1.442158
  H     -2.374238   -2.338333   -0.664340
  H     -1.551501   -3.134182    1.423716
  H     -0.842850   -0.816861    2.291491
  H      1.622257   -1.152119    1.464222
  H      1.284919    0.286091    2.408961
  H      3.174295    2.562945    1.453591
  H      5.606560    2.523800    0.934913
  H      6.519219    0.884234   -0.685448
  H      5.009337   -0.714874   -1.846486
  H      2.411561   -2.400919   -0.070080
  H      1.600249   -2.784263   -1.598480
  H      3.341176   -2.588164   -1.566563
  H      0.946144    0.710142   -1.866257
  H     -0.321175   -1.580176   -1.857061
  H     -1.079777    1.070355   -2.008250
  H     -2.194043   -0.262590   -2.107807
  H     -2.712179    1.594692   -0.307300
  H     -1.499602    1.393475    1.818032
  H      0.018327    2.382228   -0.410690
  H     -0.133067    3.329003    1.605167

 Total Charge           Charge          ....    0
 Multiplicity           Mult            ....    1
 Number of Electrons    NEL             ....  176
 Basis Dimension        Dim             ....  466

ORBITAL ENERGIES
----------------

  NO   OCC          E(Eh)            E(eV)
   0   2.0000     -20.554501      -559.3164
   1   2.0000     -20.543173      -559.0082
   2   2.0000     -15.557318      -423.3361
   3   2.0000     -15.555154      -423.2773
   4   2.0000     -11.305958      -307.6508
   5   2.0000     -11.290089      -307.2189
   6   2.0000     -11.272245      -306.7334
   7   2.0000     -11.266382      -306.5738
   8   2.0000     -11.257060      -306.3202
   9   2.0000     -11.255582      -306.2800
  10   2.0000     -11.252669      -306.2007
  11   2.0000     -11.238931      -305.8269
  12   2.0000     -11.238538      -305.8162
  13   2.0000     -11.233139      -305.6693
  14   2.0000     -11.232077      -305.6403
  15   2.0000     -11.232041      -305.6394
  16   2.0000     -11.229659      -305.5746
  17   2.0000     -11.227498      -305.5157
  18   2.0000     -11.225658      -305.4657
  19   2.0000     -11.225402      -305.4587
  20   2.0000     -11.224811      -305.4426
  21   2.0000     -11.224210      -305.4263
  22   2.0000     -11.221958      -305.3650
  23   2.0000     -11.218027      -305.2580
  24   2.0000      -1.351971       -36.7890
  25   2.0000      -1.345299       -36.6074
  26   2.0000      -1.256526       -34.1918
  27   2.0000      -1.225144       -33.3379
  28   2.0000      -1.123720       -30.5780
  29   2.0000      -1.105759       -30.0892
  30   2.0000      -1.089143       -29.6371
  31   2.0000      -1.043400       -28.3923
  32   2.0000      -1.034746       -28.1569
  33   2.0000      -0.995292       -27.0833
  34   2.0000      -0.989163       -26.9165
  35   2.0000      -0.947632       -25.7864
  36   2.0000      -0.938664       -25.5423
  37   2.0000      -0.926203       -25.2033
  38   2.0000      -0.870653       -23.6917
  39   2.0000      -0.862182       -23.4612
  40   2.0000      -0.826608       -22.4931
  41   2.0000      -0.815432       -22.1890
  42   2.0000      -0.807940       -21.9852
  43   2.0000      -0.784122       -21.3370
  44   2.0000      -0.772951       -21.0331
  45   2.0000      -0.752290       -20.4709
  46   2.0000      -0.713677       -19.4201
  47   2.0000      -0.702633       -19.1196
  48   2.0000      -0.691002       -18.8031
  49   2.0000      -0.681618       -18.5478
  50   2.0000      -0.672090       -18.2885
  51   2.0000      -0.667444       -18.1621
  52   2.0000      -0.655855       -17.8467
  53   2.0000      -0.630803       -17.1650
  54   2.0000      -0.625829       -17.0297
  55   2.0000      -0.624288       -16.9877
  56   2.0000      -0.616558       -16.7774
  57   2.0000      -0.601950       -16.3799
  58   2.0000      -0.592057       -16.1107
  59   2.0000      -0.586344       -15.9552
  60   2.0000      -0.584343       -15.9008
  61   2.0000      -0.576481       -15.6868
  62   2.0000      -0.567512       -15.4428
  63   2.0000      -0.559605       -15.2276
  64   2.0000      -0.553104       -15.0507
  65   2.0000      -0.550325       -14.9751
  66   2.0000      -0.539086       -14.6693
  67   2.0000      -0.531957       -14.4753
  68   2.0000      -0.525480       -14.2990
  69   2.0000      -0.514616       -14.0034
  70   2.0000      -0.510128       -13.8813
  71   2.0000      -0.508559       -13.8386
  72   2.0000      -0.499395       -13.5892
  73   2.0000      -0.492133       -13.3916
  74   2.0000      -0.486713       -13.2441
  75   2.0000      -0.481014       -13.0890
  76   2.0000      -0.480026       -13.0622
  77   2.0000      -0.472961       -12.8699
  78   2.0000      -0.468949       -12.7607
  79   2.0000      -0.460283       -12.5250
  80   2.0000      -0.445407       -12.1202
  81   2.0000      -0.441269       -12.0075
  82   2.0000      -0.433916       -11.8075
  83   2.0000      -0.410094       -11.1592
  84   2.0000      -0.389694       -10.6041
  85   2.0000      -0.360080        -9.7983
  86   2.0000      -0.325960        -8.8698
  87   2.0000      -0.293355        -7.9826
  88   0.0000       0.138375         3.7654
  89   0.0000       0.146170         3.9775
  90   0.0000       0.160310         4.3623
  91   0.0000       0.176769         4.8101
  92   0.0000       0.179998         4.8980

MULLIKEN ATOMIC CHARGES
-----------------------
   0 C :   -0.015513
   1 C :   -0.007710
   2 C :   -0.177946
   3 C :    0.501605
   4 O :   -0.447666
   5 N :   -0.619271
   6 C :    0.005550
   7 C :    0.267776
   8 C :   -0.461377
   9 C :   -0.039519
  10 C :   -0.023272
  11 C :   -0.049098
  12 C :   -0.014228
  13 C :   -0.090681
  14 C :    0.215618
  15 N :   -0.614196
  16 C :    0.196731
  17 C :    0.306484
  18 C :    0.031804
  19 C :    0.086739
  20 C :   -0.114615
  21 C :   -0.138107
  22 C :    0.466257
  23 O :   -0.453688
  24 H :    0.027033
  25 H :    0.025256
  26 H :    0.033009
  27 H :    0.018222
  28 H :    0.045882
  29 H :    0.043055
  30 H :    0.012387
  31 H :    0.198858
  32 H :    0.047813
  33 H :    0.035994
  34 H :    0.050033
  35 H :    0.045921
  36 H :    0.032604
  37 H :    0.036012
  38 H :    0.023876
  39 H :    0.010084
  40 H :    0.031922
  41 H :    0.034433
  42 H :    0.044989
  43 H :    0.046018
  44 H :    0.035629
  45 H :    0.036110
  46 H :    0.031332
  47 H :    0.031147
  48 H :    0.013936
  49 H :    0.196768
Sum of atomic charges:    0.0000000

LOEWDIN ATOMIC CHARGES
----------------------
   0 C :   -0.034442
   1 C :   -0.017921
   2 C :   -0.034952
   3 C :    0.166839
   4 O :   -0.187742
   5 N :   -0.204565
   6 C :    0.054534
   7 C :    0.006170
   8 C :   -0.056617
   9 C :   -0.042123
  10 C :   -0.009359
  11 C :   -0.045470
  12 C :   -0.018837
  13 C :   -0.047534
  14 C :    0.048527
  15 N :   -0.167708
  16 C :    0.065650
  17 C :    0.074622
  18 C :    0.057165
  19 C :   -0.019327
  20 C :   -0.014499
  21 C :   -0.034431
  22 C :    0.127573
  23 O :   -0.190804
  24 H :    0.015203
  25 H :    0.010669
  26 H :    0.017722
  27 H :    0.007569
  28 H :    0.021372
  29 H :    0.017975
  30 H :   -0.002031
  31 H :    0.083239
  32 H :    0.014677
  33 H :    0.016632
  34 H :    0.024326
  35 H :    0.031278
  36 H :    0.022448
  37 H :    0.024607
  38 H :    0.025307
  39 H :   -0.003485
  40 H :    0.013419
  41 H :    0.014629
  42 H :    0.018349
  43 H :    0.015180
  44 H :    0.012286
  45 H :    0.013194
  46 H :    0.009421
  47 H :    0.016295
  48 H :   -0.000340
  49 H :    0.085309

  Mayer bond orders larger than 0.100000
B(  0-C ,  1-C ) :   1.0458 B(  0-C , 24-H ) :   0.9841 B(  0-C , 25-H ) :   0.9834
B(  0-C , 26-H ) :   0.9874 B(  1-C ,  2-C ) :   1.0191 B(  1-C , 27-H ) :   0.9660
B(  1-C , 28-H ) :   0.9742 B(  2-C ,  3-C ) :   0.9748 B(  2-C , 20-C ) :   0.9746
B(  2-C , 29-H ) :   0.9540 B(  3-C ,  4-O ) :   0.9660 B(  3-C ,  5-N ) :   0.9373
B(  3-C , 30-H ) :   0.9674 B(  4-O , 31-H ) :   0.9626 B(  5-N ,  6-C ) :   0.9027
B(  5-N , 18-C ) :   0.9122 B(  6-C ,  7-C ) :   1.0103 B(  6-C , 21-C ) :   0.9560
B(  6-C , 32-H ) :   0.9539 B(  7-C ,  8-C ) :   0.9316 B(  7-C , 33-H ) :   0.9689
B(  7-C , 34-H ) :   0.9654 B(  8-C ,  9-C ) :   0.9619 B(  8-C , 17-C ) :   0.9545
B(  8-C , 22-C ) :   0.9888 B(  9-C , 10-C ) :   1.4688 B(  9-C , 14-C ) :   1.3873
B( 10-C , 11-C ) :   1.3857 B( 10-C , 35-H ) :   1.0063 B( 11-C , 12-C ) :   1.4241
B( 11-C , 36-H ) :   0.9998 B( 12-C , 13-C ) :   1.3936 B( 12-C , 37-H ) :   0.9977
B( 13-C , 14-C ) :   1.4472 B( 13-C , 38-H ) :   1.0111 B( 14-C , 15-N ) :   0.9642
B( 15-N , 16-C ) :   0.9204 B( 15-N , 17-C ) :   0.9438 B( 16-C , 39-H ) :   0.9785
B( 16-C , 40-H ) :   0.9880 B( 16-C , 41-H ) :   0.9904 B( 17-C , 18-C ) :   0.9951
B( 17-C , 42-H ) :   0.9765 B( 18-C , 19-C ) :   1.0122 B( 18-C , 43-H ) :   0.9587
B( 19-C , 20-C ) :   0.9855 B( 19-C , 44-H ) :   0.9684 B( 19-C , 45-H ) :   0.9750
B( 20-C , 21-C ) :   0.9537 B( 20-C , 46-H ) :   0.9668 B( 21-C , 22-C ) :   0.9924
B( 21-C , 47-H ) :   0.9440 B( 22-C , 23-O ) :   0.9170 B( 22-C , 48-H ) :   0.9719
B( 23-O , 49-H ) :   0.9704

FINAL SINGLE POINT ENERGY     -1030.321896661054

DIPOLE MOMENT
-------------
                                X             Y             Z
Electronic contribution:     16.88769       2.57483       2.00095
Nuclear contribution   :    -17.46976      -2.19828      -2.32980
                        -----------------------------------------
Total Dipole Moment    :     -0.58207       0.37654      -0.32886
                        -----------------------------------------
Magnitude (a.u.)       :      0.76729
Magnitude (Debye)      :      1.95029

Rotational constants in cm-1:     0.019395     0.005627     0.005036
Rotational constants in MHz :   581.435906   168.682996   150.965191

                             ****ORCA TERMINATED NORMALLY****
TOTAL RUN TIME: 0 days 0 hours 0 minutes 48 seconds 418 msec
