                         Program Version 5.0.3 -  RELEASE  -
|  1> !RHF def2-SVP TightSCF PAL16
|  2> *xyz 0 1
|  3> C 5.091894379909351 1.4324311712119457 0.06196109633440928
|  4> N 3.683727114262204 1.0519672378376408 0.15080040533093036
|  5> C 2.9566092155819224 1.250989900539086 -1.1159593932388012
|  6> C 3.3348728046358045 0.03469049012720448 -1.9684490241915797
|  7> C 3.6915551929410158 -1.0535034979590212 -0.9520840688582121
|  8> C 3.495892826639454 -0.38615828156151727 0.4139077213295567
|  9> C 2.0553354109881212 -0.5429862977570697 0.9329893362171403
| 10> C 1.0139247738836457 -0.04692201971032174 -0.08345432697848042
| 11> O -0.2529452765380171 0.18997100245097234 0.559505419717163
| 12> C -1.023588529203167 -0.9084046037198097 0.803572998598371
| 13> O -0.7116144550479365 -2.05981919866892 0.5223005926956745
| 14> C -2.334843140902497 -0.49968140465349625 1.4508328745488919
| 15> C -2.864880982203553 -1.6583858186502347 2.305606822980582
| 16> O -3.746286217749202 -1.1624394389246013 3.3160606881069152
| 17> C -3.3591331602722145 -0.030774557400095215 0.4274270163602391
| 18> C -4.0715215155603985 1.1572815212188703 0.6506931344236752
| 19> C -5.020169537935801 1.602620114756534 -0.27141355778811416
| 20> C -5.272760933794238 0.8644600056336602 -1.4252880611220096
| 21> C -4.580660640112927 -0.32214812535358145 -1.6560988352102755
| 22> C -3.631916090266376 -0.7703893755274596 -0.7350007802890359
| 23> C 1.4611158312943529 1.2616847680459127 -0.7531764899619323
| 24> H 5.6495642130778725 0.8933584689057169 -0.7106841353465805
| 25> H 5.177989425711179 2.5049575225540144 -0.14440267860778175
| 26> H 5.588672278417419 1.256907453406578 1.0225342829232797
| 27> H 3.2110429339643307 2.1956617375062826 -1.609464114338068
| 28> H 4.211496385280524 0.2552754241439499 -2.5891507290364975
| 29> H 2.528680822473693 -0.2806225039086211 -2.63884584755553
| 30> H 4.737404218979994 -1.3525807565993606 -1.0900387969229186
| 31> H 3.07413465575636 -1.9488251639533603 -1.0787082791918965
| 32> H 4.190536708766695 -0.7757530463037726 1.1665045994467989
| 33> H 1.8606919419741335 -1.5948922315353617 1.1748342300700874
| 34> H 1.9375468993427356 0.0037643418659234 1.878569515767746
| 35> H 0.8758906774345956 -0.7983616149570151 -0.8719545676524646
| 36> H -2.1023930070537764 0.3317113716778643 2.131467942357128
| 37> H -3.4049248543344524 -2.3997985421261694 1.7061375549890532
| 38> H -2.0468188291375955 -2.1707330468986332 2.824140951305935
| 39> H -4.139211866025982 -1.9374230998136703 3.7540883103757796
| 40> H -3.8964318828635482 1.7415139632683754 1.5521060144448902
| 41> H -5.56465838948893 2.524654883794205 -0.0853782433509215
| 42> H -6.012314204439382 1.21163233683181 -2.141747034888481
| 43> H -4.781286308838563 -0.9015204899561107 -2.5535073904168653
| 44> H -3.110185905127878 -1.7044219882389617 -0.9361661244456427
| 45> H 0.8540354498245061 1.4305271233538022 -1.6515310843914057
| 46> H 1.2459315657574077 2.1104842650459052 -0.0894672173382525
| 47> *
| 48>
| 49>                          ****END OF INPUT****

CARTESIAN COORDINATES (ANGSTROEM)
---------------------------------
  C      5.091894    1.432431    0.061961
  N      3.683727    1.051967    0.150800
  C      2.956609    1.250990   -1.115959
  C      3.334873    0.034690   -1.968449
  C      3.691555   -1.053503   -0.952084
  C      3.495893   -0.386158    0.413908
  C      2.055335   -0.542986    0.932989
  C      1.013925   -0.046922   -0.083454
  O     -0.252945    0.189971    0.559505
  C     -1.023589   -0.908405    0.803573
  O     -0.711614   -2.059819    0.522301
  C     -2.334843   -0.499681    1.450833
  C     -2.864881   -1.658386    2.305607
  O     -3.746286   -1.162439    3.316061
  C     -3.359133   -0.030775    0.427427
  C     -4.071522    1.157282    0.650693
  C     -5.020170    1.602620   -0.271414
  C     -5.272761    0.864460   -1.425288
  C     -4.580661   -0.322148   -1.656099
  C     -3.631916   -0.770389   -0.735001
  C      1.461116    1.261685   -0.753176
  H      5.649564    0.893358   -0.710684
  H      5.177989    2.504958   -0.144403
  H      5.588672    1.256907    1.022534
  H      3.211043    2.195662   -1.609464
  H      4.211496    0.255275   -2.589151
  H      2.528681   -0.280623   -2.638846
  H      4.737404   -1.352581   -1.090039
  H      3.074135   -1.948825   -1.078708
  H      4.190537   -0.775753    1.166505
  H      1.860692   -1.594892    1.174834
  H      1.937547    0.003764    1.878570
  H      0.875891   -0.798362   -0.871955
  H     -2.102393    0.331711    2.131468
  H     -3.404925   -2.399799    1.706138
  H     -2.046819   -2.170733    2.824141
  H     -4.139212   -1.937423    3.754088
  H     -3.896432    1.741514    1.552106
  H     -5.564658    2.524655   -0.085378
  H     -6.012314    1.211632   -2.141747
  H     -4.781286   -0.901520   -2.553507
  H     -3.110186   -1.704422   -0.936166
  H      0.854035    1.430527   -1.651531
  H      1.245932    2.110484   -0.089467

 Total Charge           Charge          ....    0
 Multiplicity           Mult            ....    1
 Number of Electrons    NEL             ....  156
 Basis Dimension        Dim             ....  409

ORBITAL ENERGIES
----------------

  NO   OCC          E(Eh)            E(eV)
   0   2.0000     -20.596675      -560.4640
   1   2.0000     -20.547245      -559.1190
   2   2.0000     -20.546771      -559.1061
   3   2.0000     -15.538053      -422.8119
   4   2.0000     -11.391697      -309.9838
   5   2.0000     -11.290093      -307.2190
   6   2.0000     -11.283771      -307.0470
   7   2.0000     -11.255981      -306.2908
   8   2.0000     -11.255356      -306.2738
   9   2.0000     -11.255029      -306.2649
  10   2.0000     -11.251478      -306.1683
  11   2.0000     -11.249366      -306.1108
  12   2.0000     -11.239758      -305.8494
  13   2.0000     -11.238821      -305.8239
  14   2.0000     -11.238621      -305.8184
  15   2.0000     -11.237693      -305.7932
  16   2.0000     -11.236622      -305.7640
  17   2.0000     -11.222099      -305.3688
  18   2.0000     -11.221985      -305.3657
  19   2.0000     -11.220926      -305.3369
  20   2.0000     -11.219272      -305.2919
  21   2.0000      -1.436954       -39.1015
  22   2.0000      -1.340837       -36.4860
  23   2.0000      -1.333817       -36.2950
  24   2.0000      -1.241578       -33.7851
  25   2.0000      -1.148230       -31.2449
  26   2.0000      -1.080750       -29.4087
  27   2.0000      -1.059489       -28.8302
  28   2.0000      -1.021650       -27.8005
  29   2.0000      -1.020177       -27.7604
  30   2.0000      -1.003775       -27.3141
  31   2.0000      -0.978426       -26.6243
  32   2.0000      -0.923900       -25.1406
  33   2.0000      -0.879789       -23.9403
  34   2.0000      -0.875589       -23.8260
  35   2.0000      -0.836782       -22.7700
  36   2.0000      -0.822317       -22.3764
  37   2.0000      -0.799275       -21.7494
  38   2.0000      -0.776276       -21.1235
  39   2.0000      -0.760047       -20.6819
  40   2.0000      -0.735238       -20.0068
  41   2.0000      -0.714957       -19.4550
  42   2.0000      -0.703492       -19.1430
  43   2.0000      -0.691043       -18.8042
  44   2.0000      -0.675838       -18.3905
  45   2.0000      -0.659270       -17.9397
  46   2.0000      -0.653236       -17.7755
  47   2.0000      -0.643226       -17.5031
  48   2.0000      -0.630987       -17.1700
  49   2.0000      -0.621090       -16.9007
  50   2.0000      -0.616361       -16.7720
  51   2.0000      -0.611995       -16.6532
  52   2.0000      -0.598337       -16.2816
  53   2.0000      -0.587480       -15.9861
  54   2.0000      -0.581650       -15.8275
  55   2.0000      -0.567524       -15.4431
  56   2.0000      -0.561450       -15.2778
  57   2.0000      -0.557339       -15.1660
  58   2.0000      -0.555133       -15.1059
  59   2.0000      -0.549330       -14.9480
  60   2.0000      -0.544318       -14.8116
  61   2.0000      -0.520771       -14.1709
  62   2.0000      -0.510322       -13.8866
  63   2.0000      -0.503663       -13.7054
  64   2.0000      -0.499727       -13.5982
  65   2.0000      -0.492688       -13.4067
  66   2.0000      -0.485881       -13.2215
  67   2.0000      -0.481742       -13.1089
  68   2.0000      -0.479773       -13.0553
  69   2.0000      -0.469676       -12.7805
  70   2.0000      -0.452938       -12.3251
  71   2.0000      -0.448934       -12.2161
  72   2.0000      -0.443827       -12.0771
  73   2.0000      -0.440154       -11.9772
  74   2.0000      -0.432331       -11.7643
  75   2.0000      -0.357982        -9.7412
  76   2.0000      -0.337226        -9.1764
  77   2.0000      -0.332078        -9.0363
  78   0.0000       0.126280         3.4363
  79   0.0000       0.128448         3.4952
  80   0.0000       0.161431         4.3928
  81   0.0000       0.172298         4.6885
  82   0.0000       0.180637         4.9154

MULLIKEN ATOMIC CHARGES
-----------------------
   0 C :    0.173769
   1 N :   -0.585362
   2 C :   -0.078603
   3 C :    0.012558
   4 C :    0.015297
   5 C :   -0.069811
   6 C :    0.112760
   7 C :    0.139440
   8 O :   -0.554955
   9 C :    0.551091
  10 O :   -0.433597
  11 C :   -0.100907
  12 C :    0.372587
  13 O :   -0.470639
  14 C :   -0.145066
  15 C :   -0.001740
  16 C :   -0.039508
  17 C :   -0.036001
  18 C :   -0.032867
  19 C :   -0.025279
  20 C :    0.155408
  21 H :   -0.000146
  22 H :    0.030248
  23 H :    0.030454
  24 H :    0.037381
  25 H :    0.036543
  26 H :    0.035335
  27 H :    0.036393
  28 H :    0.042293
  29 H :    0.036443
  30 H :    0.048136
  31 H :    0.038996
  32 H :    0.051451
  33 H :    0.078588
  34 H :    0.024669
  35 H :    0.025816
  36 H :    0.198332
  37 H :    0.040505
  38 H :    0.041155
  39 H :    0.040462
  40 H :    0.040496
  41 H :    0.051933
  42 H :    0.031074
  43 H :    0.044868
Sum of atomic charges:   -0.0000000

LOEWDIN ATOMIC CHARGES
----------------------
   0 C :    0.052781
   1 N :   -0.195244
   2 C :    0.047772
   3 C :   -0.028653
   4 C :   -0.028199
   5 C :    0.048189
   6 C :   -0.020956
   7 C :    0.118875
   8 O :   -0.179737
   9 C :    0.240121
  10 O :   -0.281783
  11 C :   -0.041571
  12 C :    0.142319
  13 O :   -0.210756
  14 C :   -0.020414
  15 C :   -0.011244
  16 C :   -0.022194
  17 C :   -0.027057
  18 C :   -0.022670
  19 C :   -0.025491
  20 C :   -0.012542
  21 H :   -0.008784
  22 H :    0.013214
  23 H :    0.013348
  24 H :    0.014405
  25 H :    0.014734
  26 H :    0.014191
  27 H :    0.014650
  28 H :    0.017191
  29 H :    0.014352
  30 H :    0.018382
  31 H :    0.020792
  32 H :    0.012881
  33 H :    0.044252
  34 H :    0.006142
  35 H :    0.003505
  36 H :    0.088323
  37 H :    0.029397
  38 H :    0.027447
  39 H :    0.026029
  40 H :    0.027129
  41 H :    0.028696
  42 H :    0.014426
  43 H :    0.023750

  Mayer bond orders larger than 0.100000
B(  0-C ,  1-N ) :   0.9476 B(  0-C , 21-H ) :   0.9769 B(  0-C , 22-H ) :   0.9919
B(  0-C , 23-H ) :   0.9920 B(  1-N ,  2-C ) :   0.9134 B(  1-N ,  5-C ) :   0.9146
B(  2-C ,  3-C ) :   0.9768 B(  2-C , 20-C ) :   0.9967 B(  2-C , 24-H ) :   0.9753
B(  3-C ,  4-C ) :   1.0360 B(  3-C , 25-H ) :   0.9684 B(  3-C , 26-H ) :   0.9751
B(  4-C ,  5-C ) :   0.9831 B(  4-C , 27-H ) :   0.9694 B(  4-C , 28-H ) :   0.9743
B(  5-C ,  6-C ) :   1.0024 B(  5-C , 29-H ) :   0.9745 B(  6-C ,  7-C ) :   1.0318
B(  6-C , 30-H ) :   0.9695 B(  6-C , 31-H ) :   0.9592 B(  7-C ,  8-O ) :   0.7787
B(  7-C , 20-C ) :   1.0159 B(  7-C , 32-H ) :   0.9636 B(  8-O ,  9-C ) :   1.0941
B(  9-C , 10-O ) :   1.9117 B(  9-C , 11-C ) :   0.9315 B( 11-C , 12-C ) :   1.0075
B( 11-C , 14-C ) :   0.9887 B( 11-C , 33-H ) :   0.9547 B( 12-C , 13-O ) :   0.9493
B( 12-C , 34-H ) :   0.9648 B( 12-C , 35-H ) :   0.9853 B( 13-O , 36-H ) :   0.9699
B( 14-C , 15-C ) :   1.4425 B( 14-C , 19-C ) :   1.4003 B( 15-C , 16-C ) :   1.4269
B( 15-C , 37-H ) :   0.9983 B( 16-C , 17-C ) :   1.4146 B( 16-C , 38-H ) :   0.9991
B( 17-C , 18-C ) :   1.4117 B( 17-C , 39-H ) :   0.9999 B( 18-C , 19-C ) :   1.4314
B( 18-C , 40-H ) :   0.9999 B( 19-C , 41-H ) :   0.9942 B( 20-C , 42-H ) :   0.9746
B( 20-C , 43-H ) :   0.9627

FINAL SINGLE POINT ENERGY      -935.489257783373

DIPOLE MOMENT
-------------
                                X             Y             Z
Electronic contribution:    -18.18922      -1.83788       4.13120
Nuclear contribution   :     18.56097       1.75626      -4.47883
                        -----------------------------------------
Total Dipole Moment    :      0.37174      -0.08162      -0.34764
                        -----------------------------------------
Magnitude (a.u.)       :      0.51546
Magnitude (Debye)      :      1.31021

Rotational constants in cm-1:     0.020416     0.004813     0.004385
Rotational constants in MHz :   612.056843   144.287470   131.466095

                             ****ORCA TERMINATED NORMALLY****
TOTAL RUN TIME: 0 days 0 hours 0 minutes 26 seconds 981 msec
