                         Program Version 5.0.3 -  RELEASE  -
|  1> !RHF def2-SVP TightSCF PAL16
|  2> *xyz 0 1
|  3> C 4.469512477450267 -2.6251685011319283 -2.2878853632223635
|  4> O 3.609866385066117 -1.49882946657552 -2.15698740891058
|  5> C 2.7320176478357103 -1.5112550900642534 -1.0988705369897471
|  6> C 2.586222844598778 -2.5419352559364046 -0.17994835997651606
|  7> C 1.6097623514894412 -2.4430877774076514 0.8074162626068117
|  8> C 0.7913252218179769 -1.302560735766097 0.9017167685122633
|  9> C 0.9752608488478935 -0.19334065521376256 0.04173114880926523
| 10> C 1.916679396456068 -0.3646662517240977 -0.9925701620098183
| 11> O 2.0279374276996114 0.5582607072633019 -2.007007716311552
| 12> C 0.10586696196472851 0.9994889975042646 0.212875000115822
| 13> C 0.37328783064124926 2.296713861046663 -0.21511279250114643
| 14> C -0.579185919272532 3.3051017686216397 -0.17742623354650924
| 15> C -1.862506821717111 3.104519023748091 0.2840040495967154
| 16> C -2.151639033486856 1.8453107077358506 0.7924838543053001
| 17> C -1.1429954519789807 0.84765553317244 0.8460068509947898
| 18> C -1.4941813043218866 -0.3852678244729978 1.6527255900357243
| 19> C -0.26892649335340574 -1.2686204021217053 1.9760085569508519
| 20> N -2.731350536471303 -1.033882064758665 1.163830996496097
| 21> C -2.5056407612880114 -1.916700257179207 0.019973587466492297
| 22> C -3.7915486937013836 -0.03286952889521345 0.8518276389541592
| 23> C -3.516463311924561 1.4327894864821273 1.286560011936143
| 24> O -0.11285805388657671 4.494330162272699 -0.6519614107183491
| 25> C 1.2334516714622434 4.132904036710726 -1.005272456115386
| 26> O 1.5689121886329385 2.7804990153383238 -0.6644904574740281
| 27> H 5.111187017987907 -2.4554791902090174 -3.1578627320961297
| 28> H 3.8957680651108406 -3.539596572020158 -2.471004172889384
| 29> H 5.117802660678118 -2.731532236617502 -1.4118491685047638
| 30> H 3.1892300031373306 -3.441966701990075 -0.2173069977578077
| 31> H 1.4776612756684253 -3.2679355263469154 1.5052728642938493
| 32> H 2.7520031657686674 0.2327096261915534 -2.573710073787942
| 33> H -2.5967763835098188 3.9003000188775867 0.2564423986574713
| 34> H -1.773961986950089 -0.01638300940447784 2.6528879231878064
| 35> H 0.22037452152076956 -0.8717601544823513 2.877474200350151
| 36> H -0.5992680136417917 -2.2815253406270743 2.2383980727286956
| 37> H -1.836470814407268 -2.742557938977684 0.2803425021983431
| 38> H -2.0862298333180993 -1.3865849092453675 -0.8423000739038575
| 39> H -3.4483018633667726 -2.381690423394146 -0.29146975830194694
| 40> H -4.724842560340226 -0.3706280762329408 1.3173379039614643
| 41> H -3.979784970243614 -0.012495701229505104 -0.23142162341961553
| 42> H -4.290326242667736 2.0824432930412797 0.8619524111384861
| 43> H -3.557153778690974 1.530142381304899 2.3776674869584706
| 44> H 1.9234493512350155 4.806712318083866 -0.4849480053995042
| 45> H 1.362833513519163 4.268438654642669 -2.0855305764240235
| 46> *
| 47>
| 48>                          ****END OF INPUT****

CARTESIAN COORDINATES (ANGSTROEM)
---------------------------------
  C      4.469512   -2.625169   -2.287885
  O      3.609866   -1.498829   -2.156987
  C      2.732018   -1.511255   -1.098871
  C      2.586223   -2.541935   -0.179948
  C      1.609762   -2.443088    0.807416
  C      0.791325   -1.302561    0.901717
  C      0.975261   -0.193341    0.041731
  C      1.916679   -0.364666   -0.992570
  O      2.027937    0.558261   -2.007008
  C      0.105867    0.999489    0.212875
  C      0.373288    2.296714   -0.215113
  C     -0.579186    3.305102   -0.177426
  C     -1.862507    3.104519    0.284004
  C     -2.151639    1.845311    0.792484
  C     -1.142995    0.847656    0.846007
  C     -1.494181   -0.385268    1.652726
  C     -0.268926   -1.268620    1.976009
  N     -2.731351   -1.033882    1.163831
  C     -2.505641   -1.916700    0.019974
  C     -3.791549   -0.032870    0.851828
  C     -3.516463    1.432789    1.286560
  O     -0.112858    4.494330   -0.651961
  C      1.233452    4.132904   -1.005272
  O      1.568912    2.780499   -0.664490
  H      5.111187   -2.455479   -3.157863
  H      3.895768   -3.539597   -2.471004
  H      5.117803   -2.731532   -1.411849
  H      3.189230   -3.441967   -0.217307
  H      1.477661   -3.267936    1.505273
  H      2.752003    0.232710   -2.573710
  H     -2.596776    3.900300    0.256442
  H     -1.773962   -0.016383    2.652888
  H      0.220375   -0.871760    2.877474
  H     -0.599268   -2.281525    2.238398
  H     -1.836471   -2.742558    0.280343
  H     -2.086230   -1.386585   -0.842300
  H     -3.448302   -2.381690   -0.291470
  H     -4.724843   -0.370628    1.317338
  H     -3.979785   -0.012496   -0.231422
  H     -4.290326    2.082443    0.861952
  H     -3.557154    1.530142    2.377667
  H      1.923449    4.806712   -0.484948
  H      1.362834    4.268439   -2.085531

 Total Charge           Charge          ....    0
 Multiplicity           Mult            ....    1
 Number of Electrons    NEL             ....  172
 Basis Dimension        Dim             ....  431

ORBITAL ENERGIES
----------------

  NO   OCC          E(Eh)            E(eV)
   0   2.0000     -20.591780      -560.3308
   1   2.0000     -20.588170      -560.2326
   2   2.0000     -20.581555      -560.0526
   3   2.0000     -20.562503      -559.5342
   4   2.0000     -15.538591      -422.8266
   5   2.0000     -11.346781      -308.7616
   6   2.0000     -11.303951      -307.5962
   7   2.0000     -11.302874      -307.5668
   8   2.0000     -11.298393      -307.4449
   9   2.0000     -11.291577      -307.2594
  10   2.0000     -11.289007      -307.1895
  11   2.0000     -11.259094      -306.3755
  12   2.0000     -11.251792      -306.1768
  13   2.0000     -11.251765      -306.1761
  14   2.0000     -11.249771      -306.1218
  15   2.0000     -11.244686      -305.9835
  16   2.0000     -11.243782      -305.9589
  17   2.0000     -11.240141      -305.8598
  18   2.0000     -11.236334      -305.7562
  19   2.0000     -11.235301      -305.7281
  20   2.0000     -11.235149      -305.7239
  21   2.0000     -11.233109      -305.6684
  22   2.0000     -11.232531      -305.6527
  23   2.0000     -11.232079      -305.6404
  24   2.0000      -1.455304       -39.6008
  25   2.0000      -1.409129       -38.3443
  26   2.0000      -1.360841       -37.0304
  27   2.0000      -1.354321       -36.8529
  28   2.0000      -1.215086       -33.0642
  29   2.0000      -1.156500       -31.4700
  30   2.0000      -1.134140       -30.8615
  31   2.0000      -1.069277       -29.0965
  32   2.0000      -1.044595       -28.4249
  33   2.0000      -1.022774       -27.8311
  34   2.0000      -1.001440       -27.2506
  35   2.0000      -0.983357       -26.7585
  36   2.0000      -0.962813       -26.1995
  37   2.0000      -0.937428       -25.5087
  38   2.0000      -0.896815       -24.4036
  39   2.0000      -0.892425       -24.2841
  40   2.0000      -0.863834       -23.5061
  41   2.0000      -0.840394       -22.8683
  42   2.0000      -0.829394       -22.5690
  43   2.0000      -0.806159       -21.9367
  44   2.0000      -0.783887       -21.3307
  45   2.0000      -0.752050       -20.4643
  46   2.0000      -0.727883       -19.8067
  47   2.0000      -0.725447       -19.7404
  48   2.0000      -0.705181       -19.1889
  49   2.0000      -0.696122       -18.9424
  50   2.0000      -0.675782       -18.3890
  51   2.0000      -0.669676       -18.2228
  52   2.0000      -0.665003       -18.0956
  53   2.0000      -0.654420       -17.8077
  54   2.0000      -0.645540       -17.5660
  55   2.0000      -0.630180       -17.1481
  56   2.0000      -0.621044       -16.8995
  57   2.0000      -0.613974       -16.7071
  58   2.0000      -0.608666       -16.5626
  59   2.0000      -0.597763       -16.2659
  60   2.0000      -0.585314       -15.9272
  61   2.0000      -0.581174       -15.8145
  62   2.0000      -0.573462       -15.6047
  63   2.0000      -0.571097       -15.5403
  64   2.0000      -0.564798       -15.3689
  65   2.0000      -0.562772       -15.3138
  66   2.0000      -0.557854       -15.1800
  67   2.0000      -0.550848       -14.9893
  68   2.0000      -0.540052       -14.6956
  69   2.0000      -0.532200       -14.4819
  70   2.0000      -0.527859       -14.3638
  71   2.0000      -0.521652       -14.1949
  72   2.0000      -0.511330       -13.9140
  73   2.0000      -0.507335       -13.8053
  74   2.0000      -0.502443       -13.6722
  75   2.0000      -0.494548       -13.4573
  76   2.0000      -0.488433       -13.2909
  77   2.0000      -0.480388       -13.0720
  78   2.0000      -0.459614       -12.5067
  79   2.0000      -0.453164       -12.3312
  80   2.0000      -0.432279       -11.7629
  81   2.0000      -0.372560       -10.1379
  82   2.0000      -0.344335        -9.3698
  83   2.0000      -0.297225        -8.0879
  84   2.0000      -0.290916        -7.9162
  85   2.0000      -0.284858        -7.7514
  86   0.0000       0.094930         2.5832
  87   0.0000       0.138335         3.7643
  88   0.0000       0.155388         4.2283
  89   0.0000       0.176465         4.8019
  90   0.0000       0.177933         4.8418

MULLIKEN ATOMIC CHARGES
-----------------------
   0 C :    0.232811
   1 O :   -0.602219
   2 C :    0.276241
   3 C :   -0.100605
   4 C :   -0.048851
   5 C :   -0.187507
   6 C :   -0.004491
   7 C :    0.226223
   8 O :   -0.379328
   9 C :   -0.016333
  10 C :    0.218926
  11 C :    0.250550
  12 C :   -0.078741
  13 C :   -0.156444
  14 C :   -0.149627
  15 C :    0.179484
  16 C :    0.178852
  17 N :   -0.653593
  18 C :    0.161203
  19 C :    0.226048
  20 C :    0.055688
  21 O :   -0.530678
  22 C :    0.555522
  23 O :   -0.525790
  24 H :    0.052097
  25 H :    0.038740
  26 H :    0.039198
  27 H :    0.033290
  28 H :    0.026057
  29 H :    0.223242
  30 H :    0.030048
  31 H :    0.040560
  32 H :    0.057483
  33 H :    0.045731
  34 H :    0.029055
  35 H :    0.019559
  36 H :    0.029060
  37 H :    0.028002
  38 H :    0.017726
  39 H :    0.039267
  40 H :    0.048304
  41 H :    0.037176
  42 H :    0.038066
Sum of atomic charges:   -0.0000000

LOEWDIN ATOMIC CHARGES
----------------------
   0 C :    0.138519
   1 O :   -0.212936
   2 C :    0.038832
   3 C :   -0.053588
   4 C :   -0.053848
   5 C :   -0.014917
   6 C :   -0.052202
   7 C :    0.100580
   8 O :   -0.122031
   9 C :   -0.034573
  10 C :    0.057138
  11 C :    0.048265
  12 C :   -0.044577
  13 C :   -0.034799
  14 C :   -0.040439
  15 C :    0.054879
  16 C :    0.002066
  17 N :   -0.205044
  18 C :    0.052067
  19 C :    0.076054
  20 C :   -0.010435
  21 O :   -0.196150
  22 C :    0.283275
  23 O :   -0.180827
  24 H :    0.021801
  25 H :    0.010672
  26 H :    0.011117
  27 H :    0.027971
  28 H :    0.024851
  29 H :    0.095186
  30 H :    0.032778
  31 H :    0.020163
  32 H :    0.034224
  33 H :    0.027977
  34 H :    0.010502
  35 H :   -0.003083
  36 H :    0.011627
  37 H :    0.009130
  38 H :    0.006328
  39 H :    0.026668
  40 H :    0.023361
  41 H :    0.007096
  42 H :    0.006323

  Mayer bond orders larger than 0.100000
B(  0-C ,  1-O ) :   0.8572 B(  0-C , 24-H ) :   0.9930 B(  0-C , 25-H ) :   0.9858
B(  0-C , 26-H ) :   0.9856 B(  1-O ,  2-C ) :   0.9363 B(  2-C ,  3-C ) :   1.3847
B(  2-C ,  7-C ) :   1.3463 B(  3-C ,  4-C ) :   1.3738 B(  3-C , 27-H ) :   1.0095
B(  4-C ,  5-C ) :   1.4731 B(  4-C , 28-H ) :   1.0062 B(  5-C ,  6-C ) :   1.3887
B(  5-C , 16-C ) :   0.9868 B(  6-C ,  7-C ) :   1.4280 B(  6-C ,  9-C ) :   0.9697
B(  7-C ,  8-O ) :   1.1385 B(  8-O , 29-H ) :   0.9386 B(  9-C , 10-C ) :   1.4354
B(  9-C , 14-C ) :   1.4383 B( 10-C , 11-C ) :   1.3596 B( 10-C , 23-O ) :   0.9621
B( 11-C , 12-C ) :   1.4176 B( 11-C , 21-O ) :   0.9492 B( 12-C , 13-C ) :   1.4227
B( 12-C , 30-H ) :   1.0193 B( 13-C , 14-C ) :   1.4593 B( 13-C , 20-C ) :   0.9868
B( 14-C , 15-C ) :   0.9242 B( 15-C , 16-C ) :   1.0558 B( 15-C , 17-N ) :   0.9577
B( 15-C , 31-H ) :   0.9650 B( 16-C , 32-H ) :   0.9514 B( 16-C , 33-H ) :   0.9722
B( 17-N , 18-C ) :   0.9355 B( 17-N , 19-C ) :   0.9108 B( 18-C , 34-H ) :   0.9896
B( 18-C , 35-H ) :   0.9789 B( 18-C , 36-H ) :   0.9908 B( 19-C , 20-C ) :   1.0794
B( 19-C , 37-H ) :   0.9742 B( 19-C , 38-H ) :   0.9666 B( 20-C , 39-H ) :   0.9685
B( 20-C , 40-H ) :   0.9457 B( 21-O , 22-C ) :   0.8967 B( 22-C , 23-O ) :   0.9124
B( 22-C , 41-H ) :   0.9840 B( 22-C , 42-H ) :   0.9818

FINAL SINGLE POINT ENERGY     -1083.571578438530

DIPOLE MOMENT
-------------
                                X             Y             Z
Electronic contribution:      7.77985      13.64442      -2.14047
Nuclear contribution   :     -7.09601     -14.58131       1.92585
                        -----------------------------------------
Total Dipole Moment    :      0.68384      -0.93689      -0.21462
                        -----------------------------------------
Magnitude (a.u.)       :      1.17960
Magnitude (Debye)      :      2.99830

Rotational constants in cm-1:     0.011378     0.007145     0.004779
Rotational constants in MHz :   341.102625   214.197173   143.268964

                             ****ORCA TERMINATED NORMALLY****
TOTAL RUN TIME: 0 days 0 hours 0 minutes 33 seconds 187 msec
