                         Program Version 5.0.3 -  RELEASE  -
|  1> !RHF def2-SVP TightSCF PAL16
|  2> *xyz 0 1
|  3> C -0.9870360319167687 4.184954262912463 -0.520647492912925
|  4> C -1.885684261284811 3.178590881476437 -1.228865232695072
|  5> C -1.340840645500457 1.756733693280658 -1.1028716588899146
|  6> C -1.1614132366886554 1.339059947037621 0.37572721083424837
|  7> C -0.7191881514424507 -0.16208470134982889 0.5522317370075478
|  8> C -1.9505453988215873 -1.1121107758457984 0.7788447411724562
|  9> C -3.0025720073750364 -1.0702936240424117 -0.34485318934985615
| 10> C -4.186262323467247 -2.001000578068502 -0.07669561506627112
| 11> C -3.744038893387072 -3.432191655822938 0.1923880726380812
| 12> C -2.718781395834147 -3.4861011173467693 1.3164264309323415
| 13> C -1.5262046027948062 -2.5800058397488663 1.0197102646746077
| 14> O 0.11148972000022307 -0.29576016631396856 1.725937933423874
| 15> C 1.4428205682705078 -0.48265565296252155 1.2418843540642888
| 16> C 1.2629751501919386 -1.1397439397329303 -0.10231778527033727
| 17> C 2.403625433701858 -0.9750654272119231 -1.1397375884361547
| 18> C 3.713221811423851 -1.6485156220364372 -0.6951790849685437
| 19> C 4.581094608445016 -0.7847045260563806 0.21722500099486142
| 20> C 4.574540941509448 0.6913448060196988 -0.17532570392853877
| 21> C 3.9387795392915685 0.9276085738988398 -1.5382093042691753
| 22> N 2.580847396147189 0.41147908726554605 -1.6085184602511606
| 23> O 0.03615571453375857 -0.5775210934073332 -0.5963140967522891
| 24> C -0.21889535673723964 2.3609389490586667 1.0520219592994569
| 25> C -0.7467140996306504 3.7913296922946462 0.9314349921992296
| 26> H -1.4398766480466951 5.1817639098815835 -0.5645891079378851
| 27> H -0.025453047420092675 4.247372163632027 -1.0450053143260456
| 28> H -2.895966311785582 3.222581108963442 -0.8040408560316221
| 29> H -1.9721149194319743 3.446797472896553 -2.287925830742668
| 30> H -0.37642893588036125 1.707664645090279 -1.6239376681208515
| 31> H -2.0119622908900885 1.0783314210982744 -1.6346094370460318
| 32> H -2.1271581845138985 1.4546629777272142 0.8879132378249073
| 33> H -2.439960201771228 -0.7783391810184626 1.7060465362033381
| 34> H -3.4094970063650987 -0.060049662704881296 -0.4474855107193128
| 35> H -2.53919813150436 -1.339963549038076 -1.301606185452617
| 36> H -4.868946624331213 -1.981662759411956 -0.9338821865612772
| 37> H -4.750829570683516 -1.626972541081554 0.7865874069671729
| 38> H -4.613334422626599 -4.045968125513685 0.45358372610264147
| 39> H -3.3120144514093313 -3.8603249417828964 -0.7204330893254189
| 40> H -2.3730233770063514 -4.517522613655236 1.4490571405268473
| 41> H -3.1869474250245347 -3.181089723928536 2.260241888784011
| 42> H -0.8247597322054466 -2.6443864997884927 1.858894157459228
| 43> H -1.0123760271596316 -2.970249005764116 0.133606687441931
| 44> H 1.9225060222250703 0.4955290917934583 1.182595092387066
| 45> H 2.003513659258605 -1.1023965967402112 1.9464444175592166
| 46> H 1.0853346194584477 -2.211694682192757 0.04113213772827256
| 47> H 2.058116298240815 -1.5208399488510143 -2.028491455855228
| 48> H 3.5116394204631556 -2.6120207397748705 -0.21208333662498563
| 49> H 4.299555697181347 -1.8842620859340657 -1.594323767918119
| 50> H 5.60881724328655 -1.167527058060798 0.18982468731824906
| 51> H 4.259107748829306 -0.8839799582020011 1.2594906677952384
| 52> H 5.601186027369289 1.0762382183520636 -0.1734510077535335
| 53> H 4.035845186656543 1.2691251522519116 0.5855975062497869
| 54> H 3.9227125578290076 2.0016067656520495 -1.754788668056313
| 55> H 4.548823394560187 0.4678384951867729 -2.325148405800353
| 56> H 1.9092374254303819 1.0303192206992065 -1.1564975999658957
| 57> H 0.7754386221523485 2.3157197307219994 0.5938553197950017
| 58> H -0.10416630523068121 2.130550781831561 2.117170983079281
| 59> H -1.6833196733894125 3.8827591090343834 1.4951711214975605
| 60> H -0.03187511489772473 4.486104235333011 1.3867892290676087
| 61> *
| 62>
| 63>                          ****END OF INPUT****

CARTESIAN COORDINATES (ANGSTROEM)
---------------------------------
  C     -0.987036    4.184954   -0.520647
  C     -1.885684    3.178591   -1.228865
  C     -1.340841    1.756734   -1.102872
  C     -1.161413    1.339060    0.375727
  C     -0.719188   -0.162085    0.552232
  C     -1.950545   -1.112111    0.778845
  C     -3.002572   -1.070294   -0.344853
  C     -4.186262   -2.001001   -0.076696
  C     -3.744039   -3.432192    0.192388
  C     -2.718781   -3.486101    1.316426
  C     -1.526205   -2.580006    1.019710
  O      0.111490   -0.295760    1.725938
  C      1.442821   -0.482656    1.241884
  C      1.262975   -1.139744   -0.102318
  C      2.403625   -0.975065   -1.139738
  C      3.713222   -1.648516   -0.695179
  C      4.581095   -0.784705    0.217225
  C      4.574541    0.691345   -0.175326
  C      3.938780    0.927609   -1.538209
  N      2.580847    0.411479   -1.608518
  O      0.036156   -0.577521   -0.596314
  C     -0.218895    2.360939    1.052022
  C     -0.746714    3.791330    0.931435
  H     -1.439877    5.181764   -0.564589
  H     -0.025453    4.247372   -1.045005
  H     -2.895966    3.222581   -0.804041
  H     -1.972115    3.446797   -2.287926
  H     -0.376429    1.707665   -1.623938
  H     -2.011962    1.078331   -1.634609
  H     -2.127158    1.454663    0.887913
  H     -2.439960   -0.778339    1.706047
  H     -3.409497   -0.060050   -0.447486
  H     -2.539198   -1.339964   -1.301606
  H     -4.868947   -1.981663   -0.933882
  H     -4.750830   -1.626973    0.786587
  H     -4.613334   -4.045968    0.453584
  H     -3.312014   -3.860325   -0.720433
  H     -2.373023   -4.517523    1.449057
  H     -3.186947   -3.181090    2.260242
  H     -0.824760   -2.644386    1.858894
  H     -1.012376   -2.970249    0.133607
  H      1.922506    0.495529    1.182595
  H      2.003514   -1.102397    1.946444
  H      1.085335   -2.211695    0.041132
  H      2.058116   -1.520840   -2.028491
  H      3.511639   -2.612021   -0.212083
  H      4.299556   -1.884262   -1.594324
  H      5.608817   -1.167527    0.189825
  H      4.259108   -0.883980    1.259491
  H      5.601186    1.076238   -0.173451
  H      4.035845    1.269125    0.585598
  H      3.922713    2.001607   -1.754789
  H      4.548823    0.467838   -2.325148
  H      1.909237    1.030319   -1.156498
  H      0.775439    2.315720    0.593855
  H     -0.104166    2.130551    2.117171
  H     -1.683320    3.882759    1.495171
  H     -0.031875    4.486104    1.386789

 Total Charge           Charge          ....    0
 Multiplicity           Mult            ....    1
 Number of Electrons    NEL             ....  178
 Basis Dimension        Dim             ....  497

ORBITAL ENERGIES
----------------

  NO   OCC          E(Eh)            E(eV)
   0   2.0000     -20.559242      -559.4454
   1   2.0000     -20.556940      -559.3828
   2   2.0000     -15.531953      -422.6459
   3   2.0000     -11.337953      -308.5214
   4   2.0000     -11.286860      -307.1311
   5   2.0000     -11.284072      -307.0552
   6   2.0000     -11.258688      -306.3645
   7   2.0000     -11.249652      -306.1186
   8   2.0000     -11.232476      -305.6512
   9   2.0000     -11.227212      -305.5080
  10   2.0000     -11.224975      -305.4471
  11   2.0000     -11.223974      -305.4199
  12   2.0000     -11.221095      -305.3415
  13   2.0000     -11.216564      -305.2182
  14   2.0000     -11.215701      -305.1947
  15   2.0000     -11.214747      -305.1688
  16   2.0000     -11.214056      -305.1500
  17   2.0000     -11.213794      -305.1429
  18   2.0000     -11.213224      -305.1273
  19   2.0000     -11.212508      -305.1078
  20   2.0000     -11.212401      -305.1049
  21   2.0000     -11.212107      -305.0969
  22   2.0000     -11.210172      -305.0443
  23   2.0000      -1.416662       -38.5493
  24   2.0000      -1.312902       -35.7259
  25   2.0000      -1.199959       -32.6525
  26   2.0000      -1.114305       -30.3218
  27   2.0000      -1.102241       -29.9935
  28   2.0000      -1.058913       -28.8145
  29   2.0000      -1.052718       -28.6459
  30   2.0000      -1.015162       -27.6240
  31   2.0000      -0.991639       -26.9839
  32   2.0000      -0.990442       -26.9513
  33   2.0000      -0.985087       -26.8056
  34   2.0000      -0.969142       -26.3717
  35   2.0000      -0.884682       -24.0734
  36   2.0000      -0.869576       -23.6624
  37   2.0000      -0.864142       -23.5145
  38   2.0000      -0.826245       -22.4833
  39   2.0000      -0.817668       -22.2499
  40   2.0000      -0.810044       -22.0424
  41   2.0000      -0.804357       -21.8877
  42   2.0000      -0.771644       -20.9975
  43   2.0000      -0.746285       -20.3074
  44   2.0000      -0.740455       -20.1488
  45   2.0000      -0.732383       -19.9292
  46   2.0000      -0.706536       -19.2258
  47   2.0000      -0.697685       -18.9850
  48   2.0000      -0.662560       -18.0292
  49   2.0000      -0.658663       -17.9231
  50   2.0000      -0.644387       -17.5347
  51   2.0000      -0.629054       -17.1174
  52   2.0000      -0.625802       -17.0289
  53   2.0000      -0.612132       -16.6570
  54   2.0000      -0.610038       -16.6000
  55   2.0000      -0.605106       -16.4658
  56   2.0000      -0.596720       -16.2376
  57   2.0000      -0.595755       -16.2113
  58   2.0000      -0.593456       -16.1488
  59   2.0000      -0.576498       -15.6873
  60   2.0000      -0.574566       -15.6347
  61   2.0000      -0.560196       -15.2437
  62   2.0000      -0.552856       -15.0440
  63   2.0000      -0.546070       -14.8593
  64   2.0000      -0.538562       -14.6550
  65   2.0000      -0.535333       -14.5671
  66   2.0000      -0.528871       -14.3913
  67   2.0000      -0.525046       -14.2872
  68   2.0000      -0.519576       -14.1384
  69   2.0000      -0.514403       -13.9976
  70   2.0000      -0.507367       -13.8062
  71   2.0000      -0.504379       -13.7249
  72   2.0000      -0.494323       -13.4512
  73   2.0000      -0.486077       -13.2268
  74   2.0000      -0.480671       -13.0797
  75   2.0000      -0.478872       -13.0308
  76   2.0000      -0.477403       -12.9908
  77   2.0000      -0.474539       -12.9129
  78   2.0000      -0.462117       -12.5749
  79   2.0000      -0.456371       -12.4185
  80   2.0000      -0.452175       -12.3043
  81   2.0000      -0.446534       -12.1508
  82   2.0000      -0.443184       -12.0596
  83   2.0000      -0.440768       -11.9939
  84   2.0000      -0.433678       -11.8010
  85   2.0000      -0.421349       -11.4655
  86   2.0000      -0.420082       -11.4310
  87   2.0000      -0.386961       -10.5297
  88   2.0000      -0.348211        -9.4753
  89   0.0000       0.155434         4.2296
  90   0.0000       0.170898         4.6504
  91   0.0000       0.172721         4.7000
  92   0.0000       0.183124         4.9831
  93   0.0000       0.189474         5.1558

MULLIKEN ATOMIC CHARGES
-----------------------
   0 C :   -0.047163
   1 C :   -0.021417
   2 C :    0.020711
   3 C :   -0.234511
   4 C :    0.539747
   5 C :   -0.135278
   6 C :   -0.032557
   7 C :   -0.013632
   8 C :   -0.047941
   9 C :   -0.005914
  10 C :   -0.040370
  11 O :   -0.610599
  12 C :    0.347661
  13 C :    0.142252
  14 C :    0.158543
  15 C :   -0.065886
  16 C :   -0.047674
  17 C :   -0.084743
  18 C :    0.186631
  19 N :   -0.518099
  20 O :   -0.611419
  21 C :   -0.005409
  22 C :   -0.011299
  23 H :    0.027857
  24 H :    0.017981
  25 H :    0.015583
  26 H :    0.030007
  27 H :    0.032553
  28 H :    0.035674
  29 H :    0.028396
  30 H :    0.030126
  31 H :    0.039762
  32 H :    0.044056
  33 H :    0.028945
  34 H :    0.017150
  35 H :    0.027617
  36 H :    0.021108
  37 H :    0.026493
  38 H :    0.019839
  39 H :    0.040058
  40 H :    0.033266
  41 H :    0.018038
  42 H :    0.042182
  43 H :    0.027060
  44 H :    0.034304
  45 H :    0.036164
  46 H :    0.041208
  47 H :    0.035930
  48 H :    0.027926
  49 H :    0.029042
  50 H :    0.024460
  51 H :    0.031403
  52 H :    0.020555
  53 H :    0.151488
  54 H :    0.005175
  55 H :    0.049150
  56 H :    0.020409
  57 H :    0.027401
Sum of atomic charges:    0.0000000

LOEWDIN ATOMIC CHARGES
----------------------
   0 C :   -0.023484
   1 C :   -0.019279
   2 C :   -0.012141
   3 C :   -0.035020
   4 C :    0.201430
   5 C :   -0.029104
   6 C :   -0.016306
   7 C :   -0.017643
   8 C :   -0.023332
   9 C :   -0.017623
  10 C :   -0.018379
  11 O :   -0.243987
  12 C :    0.119623
  13 C :    0.093805
  14 C :    0.047987
  15 C :   -0.025333
  16 C :   -0.026064
  17 C :   -0.041143
  18 C :    0.056098
  19 N :   -0.155847
  20 O :   -0.242298
  21 C :   -0.014009
  22 C :   -0.018006
  23 H :    0.012001
  24 H :    0.008903
  25 H :    0.007460
  26 H :    0.014259
  27 H :    0.014120
  28 H :    0.014993
  29 H :    0.012878
  30 H :    0.015393
  31 H :    0.012232
  32 H :    0.015900
  33 H :    0.013984
  34 H :    0.009126
  35 H :    0.011955
  36 H :    0.010194
  37 H :    0.012969
  38 H :    0.009648
  39 H :    0.013656
  40 H :    0.010076
  41 H :   -0.001359
  42 H :    0.017165
  43 H :    0.007262
  44 H :    0.015622
  45 H :    0.019766
  46 H :    0.020210
  47 H :    0.017785
  48 H :    0.009568
  49 H :    0.014775
  50 H :    0.007838
  51 H :    0.015088
  52 H :    0.006595
  53 H :    0.048487
  54 H :   -0.000095
  55 H :    0.018138
  56 H :    0.010154
  57 H :    0.013311

  Mayer bond orders larger than 0.100000
B(  0-C ,  1-C ) :   1.0282 B(  0-C , 22-C ) :   1.0259 B(  0-C , 23-H ) :   0.9765
B(  0-C , 24-H ) :   0.9705 B(  1-C ,  2-C ) :   1.0351 B(  1-C , 25-H ) :   0.9675
B(  1-C , 26-H ) :   0.9763 B(  2-C ,  3-C ) :   0.9825 B(  2-C , 27-H ) :   0.9630
B(  2-C , 28-H ) :   0.9746 B(  3-C ,  4-C ) :   0.9689 B(  3-C , 21-C ) :   1.0201
B(  3-C , 29-H ) :   0.9597 B(  4-C ,  5-C ) :   0.9962 B(  4-C , 11-O ) :   0.9076
B(  4-C , 20-O ) :   0.8876 B(  5-C ,  6-C ) :   0.9906 B(  5-C , 10-C ) :   1.0072
B(  5-C , 30-H ) :   0.9512 B(  6-C ,  7-C ) :   1.0397 B(  6-C , 31-H ) :   0.9671
B(  6-C , 32-H ) :   0.9641 B(  7-C ,  8-C ) :   1.0318 B(  7-C , 33-H ) :   0.9762
B(  7-C , 34-H ) :   0.9679 B(  8-C ,  9-C ) :   1.0269 B(  8-C , 35-H ) :   0.9766
B(  8-C , 36-H ) :   0.9699 B(  9-C , 10-C ) :   1.0433 B(  9-C , 37-H ) :   0.9762
B(  9-C , 38-H ) :   0.9694 B( 10-C , 39-H ) :   0.9710 B( 10-C , 40-H ) :   0.9595
B( 11-O , 12-C ) :   0.8544 B( 12-C , 13-C ) :   1.0359 B( 12-C , 41-H ) :   0.9742
B( 12-C , 42-H ) :   0.9652 B( 13-C , 14-C ) :   1.0108 B( 13-C , 20-O ) :   0.8614
B( 13-C , 43-H ) :   0.9515 B( 14-C , 15-C ) :   1.0344 B( 14-C , 19-N ) :   0.9428
B( 14-C , 44-H ) :   0.9532 B( 15-C , 16-C ) :   1.0341 B( 15-C , 45-H ) :   0.9734
B( 15-C , 46-H ) :   0.9616 B( 16-C , 17-C ) :   0.9993 B( 16-C , 47-H ) :   0.9733
B( 16-C , 48-H ) :   0.9758 B( 17-C , 18-C ) :   1.0519 B( 17-C , 49-H ) :   0.9739
B( 17-C , 50-H ) :   0.9686 B( 18-C , 19-N ) :   0.9701 B( 18-C , 51-H ) :   0.9846
B( 18-C , 52-H ) :   0.9695 B( 19-N , 53-H ) :   0.9461 B( 21-C , 22-C ) :   1.0437
B( 21-C , 54-H ) :   0.9602 B( 21-C , 55-H ) :   0.9656 B( 22-C , 56-H ) :   0.9691
B( 22-C , 57-H ) :   0.9761

FINAL SINGLE POINT ENERGY      -981.181252688461

DIPOLE MOMENT
-------------
                                X             Y             Z
Electronic contribution:      2.12945      -2.68276       1.00539
Nuclear contribution   :     -1.51412       2.54270      -0.69040
                        -----------------------------------------
Total Dipole Moment    :      0.61533      -0.14006       0.31499
                        -----------------------------------------
Magnitude (a.u.)       :      0.70531
Magnitude (Debye)      :      1.79277

Rotational constants in cm-1:     0.010333     0.006637     0.004689
Rotational constants in MHz :   309.771134   198.975271   140.578533

                             ****ORCA TERMINATED NORMALLY****
TOTAL RUN TIME: 0 days 0 hours 0 minutes 46 seconds 101 msec
