                         Program Version 5.0.3 -  RELEASE  -
|  1> !RHF def2-SVP TightSCF PAL16
|  2> *xyz 0 1
|  3> C 7.276533916014545 1.7627955132968367 -0.9318309292920584
|  4> C 6.112523401615191 1.152230899438508 -0.19161005898665662
|  5> O 6.2233677284870765 0.813820572688176 0.9806426068471424
|  6> N 4.970599505969892 1.0830677951396461 -0.9696696892710074
|  7> C 3.7216843167941898 0.5383253446075876 -0.6069941620137402
|  8> C 2.6686247400622327 0.6961357881553886 -1.5146287307879176
|  9> C 1.392702145910519 0.1863765682107264 -1.239158175378096
| 10> C 1.144388916582584 -0.49538319841276557 -0.046374288682693145
| 11> O -0.056414401413498766 -1.059832717852397 0.28668031486208284
| 12> C -1.1620993180504402 -0.8743751205473482 -0.6088133389893036
| 13> C -2.371780645524906 -1.5913615212077208 0.003883320540213636
| 14> O -2.087181341638171 -2.997378907966448 0.07684423397962384
| 15> C -3.658750766292861 -1.4017315522987435 -0.8232030597055688
| 16> N -4.148998978956876 -0.03248151682009823 -1.0135802222437074
| 17> C -4.462981847282799 0.704679241178608 0.21510085841641524
| 18> C -5.583659435656197 0.050367672198287396 1.0244916753360114
| 19> C -4.876234504980247 2.1261680602963517 -0.17762017666977595
| 20> C 2.2006657173036697 -0.6508878109590173 0.8652642807999332
| 21> C 2.026936645375541 -1.3678000362817475 2.153291358440802
| 22> C 0.8392497695128639 -1.0289631818779903 3.0154001085113205
| 23> O 2.857936756658117 -2.2050474833256026 2.496797931113562
| 24> C 3.4825098999452075 -0.14909724436406374 0.5810900721611729
| 25> H 8.2119238301419 1.3770557387201565 -0.5162579047970817
| 26> H 7.246891534291614 2.8495062216242433 -0.8179843655342762
| 27> H 7.247335498666652 1.504553514506013 -1.9943344717672613
| 28> H 5.02361865466373 1.5083964046360705 -1.8866748515638072
| 29> H 2.8223942034594116 1.2192268545807075 -2.4560019672533984
| 30> H 0.6222619624619068 0.3327819237474775 -1.9894993207835532
| 31> H -1.3668514983953346 0.1958998045984067 -0.7183391602700014
| 32> H -0.9223284847341343 -1.3269470582218417 -1.5783609559780785
| 33> H -2.523963807244049 -1.2591585430828172 1.0366914361111579
| 34> H -1.225949891300181 -3.0826924279024244 0.5283204853346742
| 35> H -3.493544562534246 -1.8319133930081517 -1.8200019277932609
| 36> H -4.454232383987059 -2.0274883647323065 -0.40011362267674805
| 37> H -3.5026129914347814 0.5016985891316837 -1.590822738920635
| 38> H -3.5684642217045814 0.7883345593741523 0.8427716522795383
| 39> H -5.860148631838332 0.678415400912415 1.8786540848328797
| 40> H -6.482318828681572 -0.09917648612909859 0.41563893207403013
| 41> H -5.2771035593078315 -0.9207589852043366 1.4257756034566427
| 42> H -4.073476407958282 2.633395156850653 -0.7247279558344127
| 43> H -5.770682041107981 2.124964789333334 -0.8110315678104146
| 44> H -5.095771656277617 2.7253029813975167 0.7129067834353106
| 45> H 0.42070968276776 -0.053604864086895715 2.752568336854171
| 46> H 0.07491011758492164 -1.8027977420455907 2.910165828927687
| 47> H 1.1645567606766327 -0.9747621867363884 4.0585925865368395
| 48> H 4.273224501357693 -0.3198590515613546 1.307319745932543
| 49> *
| 50>
| 51>                          ****END OF INPUT****

CARTESIAN COORDINATES (ANGSTROEM)
---------------------------------
  C      7.276534    1.762796   -0.931831
  C      6.112523    1.152231   -0.191610
  O      6.223368    0.813821    0.980643
  N      4.970600    1.083068   -0.969670
  C      3.721684    0.538325   -0.606994
  C      2.668625    0.696136   -1.514629
  C      1.392702    0.186377   -1.239158
  C      1.144389   -0.495383   -0.046374
  O     -0.056414   -1.059833    0.286680
  C     -1.162099   -0.874375   -0.608813
  C     -2.371781   -1.591362    0.003883
  O     -2.087181   -2.997379    0.076844
  C     -3.658751   -1.401732   -0.823203
  N     -4.148999   -0.032482   -1.013580
  C     -4.462982    0.704679    0.215101
  C     -5.583659    0.050368    1.024492
  C     -4.876235    2.126168   -0.177620
  C      2.200666   -0.650888    0.865264
  C      2.026937   -1.367800    2.153291
  C      0.839250   -1.028963    3.015400
  O      2.857937   -2.205047    2.496798
  C      3.482510   -0.149097    0.581090
  H      8.211924    1.377056   -0.516258
  H      7.246892    2.849506   -0.817984
  H      7.247335    1.504554   -1.994334
  H      5.023619    1.508396   -1.886675
  H      2.822394    1.219227   -2.456002
  H      0.622262    0.332782   -1.989499
  H     -1.366851    0.195900   -0.718339
  H     -0.922328   -1.326947   -1.578361
  H     -2.523964   -1.259159    1.036691
  H     -1.225950   -3.082692    0.528320
  H     -3.493545   -1.831913   -1.820002
  H     -4.454232   -2.027488   -0.400114
  H     -3.502613    0.501699   -1.590823
  H     -3.568464    0.788335    0.842772
  H     -5.860149    0.678415    1.878654
  H     -6.482319   -0.099176    0.415639
  H     -5.277104   -0.920759    1.425776
  H     -4.073476    2.633395   -0.724728
  H     -5.770682    2.124965   -0.811032
  H     -5.095772    2.725303    0.712907
  H      0.420710   -0.053605    2.752568
  H      0.074910   -1.802798    2.910166
  H      1.164557   -0.974762    4.058593
  H      4.273225   -0.319859    1.307320

 Total Charge           Charge          ....    0
 Multiplicity           Mult            ....    1
 Number of Electrons    NEL             ....  166
 Basis Dimension        Dim             ....  428

ORBITAL ENERGIES
----------------

  NO   OCC          E(Eh)            E(eV)
   0   2.0000     -20.601980      -560.6084
   1   2.0000     -20.551055      -559.2226
   2   2.0000     -20.535246      -558.7924
   3   2.0000     -20.528412      -558.6065
   4   2.0000     -15.614259      -424.8856
   5   2.0000     -15.550606      -423.1535
   6   2.0000     -11.370632      -309.4106
   7   2.0000     -11.332997      -308.3865
   8   2.0000     -11.322973      -308.1138
   9   2.0000     -11.309665      -307.7516
  10   2.0000     -11.298365      -307.4441
  11   2.0000     -11.292098      -307.2736
  12   2.0000     -11.264639      -306.5264
  13   2.0000     -11.263647      -306.4994
  14   2.0000     -11.261437      -306.4393
  15   2.0000     -11.259479      -306.3860
  16   2.0000     -11.252468      -306.1952
  17   2.0000     -11.251629      -306.1724
  18   2.0000     -11.251398      -306.1661
  19   2.0000     -11.233979      -305.6921
  20   2.0000     -11.226801      -305.4968
  21   2.0000     -11.225080      -305.4500
  22   2.0000      -1.416138       -38.5351
  23   2.0000      -1.374229       -37.3947
  24   2.0000      -1.356906       -36.9233
  25   2.0000      -1.337884       -36.4057
  26   2.0000      -1.253872       -34.1196
  27   2.0000      -1.205211       -32.7955
  28   2.0000      -1.151950       -31.3462
  29   2.0000      -1.060526       -28.8584
  30   2.0000      -1.044334       -28.4178
  31   2.0000      -1.033330       -28.1183
  32   2.0000      -1.008428       -27.4407
  33   2.0000      -0.993044       -27.0221
  34   2.0000      -0.974549       -26.5188
  35   2.0000      -0.935946       -25.4684
  36   2.0000      -0.916570       -24.9412
  37   2.0000      -0.878075       -23.8936
  38   2.0000      -0.848040       -23.0763
  39   2.0000      -0.823535       -22.4095
  40   2.0000      -0.792139       -21.5552
  41   2.0000      -0.773913       -21.0592
  42   2.0000      -0.769867       -20.9492
  43   2.0000      -0.737443       -20.0668
  44   2.0000      -0.713953       -19.4276
  45   2.0000      -0.705253       -19.1909
  46   2.0000      -0.691323       -18.8118
  47   2.0000      -0.679111       -18.4796
  48   2.0000      -0.676033       -18.3958
  49   2.0000      -0.664661       -18.0864
  50   2.0000      -0.647149       -17.6098
  51   2.0000      -0.637893       -17.3580
  52   2.0000      -0.635925       -17.3044
  53   2.0000      -0.621046       -16.8995
  54   2.0000      -0.616471       -16.7750
  55   2.0000      -0.609941       -16.5973
  56   2.0000      -0.609248       -16.5785
  57   2.0000      -0.602417       -16.3926
  58   2.0000      -0.597644       -16.2627
  59   2.0000      -0.590264       -16.0619
  60   2.0000      -0.579997       -15.7825
  61   2.0000      -0.569559       -15.4985
  62   2.0000      -0.564779       -15.3684
  63   2.0000      -0.557528       -15.1711
  64   2.0000      -0.550023       -14.9669
  65   2.0000      -0.549253       -14.9459
  66   2.0000      -0.538906       -14.6644
  67   2.0000      -0.532646       -14.4940
  68   2.0000      -0.531542       -14.4640
  69   2.0000      -0.514539       -14.0013
  70   2.0000      -0.510466       -13.8905
  71   2.0000      -0.499254       -13.5854
  72   2.0000      -0.494974       -13.4689
  73   2.0000      -0.491880       -13.3847
  74   2.0000      -0.484080       -13.1725
  75   2.0000      -0.477639       -12.9972
  76   2.0000      -0.448056       -12.1922
  77   2.0000      -0.438824       -11.9410
  78   2.0000      -0.431876       -11.7519
  79   2.0000      -0.417758       -11.3678
  80   2.0000      -0.375798       -10.2260
  81   2.0000      -0.355785        -9.6814
  82   2.0000      -0.310302        -8.4437
  83   0.0000       0.086757         2.3608
  84   0.0000       0.124214         3.3800
  85   0.0000       0.148654         4.0451
  86   0.0000       0.151898         4.1334
  87   0.0000       0.163209         4.4411

MULLIKEN ATOMIC CHARGES
-----------------------
   0 C :   -0.051700
   1 C :    0.373453
   2 O :   -0.433246
   3 N :   -0.393890
   4 C :    0.177514
   5 C :   -0.026488
   6 C :   -0.141409
   7 C :    0.373413
   8 O :   -0.602321
   9 C :    0.259794
  10 C :    0.181484
  11 O :   -0.471457
  12 C :    0.162193
  13 N :   -0.472807
  14 C :   -0.029387
  15 C :   -0.003674
  16 C :    0.002867
  17 C :   -0.213558
  18 C :    0.261112
  19 C :    0.003283
  20 O :   -0.382342
  21 C :   -0.006173
  22 H :    0.079353
  23 H :    0.075665
  24 H :    0.040537
  25 H :    0.159715
  26 H :    0.028030
  27 H :    0.041731
  28 H :    0.026477
  29 H :    0.044763
  30 H :    0.031494
  31 H :    0.212013
  32 H :    0.035998
  33 H :    0.056176
  34 H :    0.122914
  35 H :    0.012340
  36 H :    0.031461
  37 H :    0.040504
  38 H :    0.034620
  39 H :    0.018549
  40 H :    0.039798
  41 H :    0.030071
  42 H :    0.043540
  43 H :    0.064995
  44 H :    0.064629
  45 H :    0.097964
Sum of atomic charges:   -0.0000000

LOEWDIN ATOMIC CHARGES
----------------------
   0 C :   -0.051714
   1 C :    0.186969
   2 O :   -0.292395
   3 N :   -0.063199
   4 C :    0.033696
   5 C :   -0.028268
   6 C :   -0.067970
   7 C :    0.090859
   8 O :   -0.202871
   9 C :    0.125281
  10 C :    0.088343
  11 O :   -0.200732
  12 C :    0.053284
  13 N :   -0.152692
  14 C :    0.034018
  15 C :   -0.032822
  16 C :   -0.031377
  17 C :   -0.086570
  18 C :    0.169783
  19 C :   -0.049358
  20 O :   -0.236939
  21 C :    0.016646
  22 H :    0.044835
  23 H :    0.042966
  24 H :    0.022224
  25 H :    0.086542
  26 H :    0.025688
  27 H :    0.029415
  28 H :    0.005222
  29 H :    0.014461
  30 H :    0.004355
  31 H :    0.086732
  32 H :    0.017769
  33 H :    0.023238
  34 H :    0.046928
  35 H :   -0.011434
  36 H :    0.020009
  37 H :    0.022211
  38 H :    0.014611
  39 H :    0.009690
  40 H :    0.020523
  41 H :    0.017381
  42 H :    0.024574
  43 H :    0.040308
  44 H :    0.038468
  45 H :    0.051316

  Mayer bond orders larger than 0.100000
B(  0-C ,  1-C ) :   0.9886 B(  0-C , 22-H ) :   0.9792 B(  0-C , 23-H ) :   0.9668
B(  0-C , 24-H ) :   0.9848 B(  1-C ,  2-O ) :   1.9377 B(  1-C ,  3-N ) :   1.0858
B(  3-N ,  4-C ) :   0.9744 B(  3-N , 25-H ) :   0.9374 B(  4-C ,  5-C ) :   1.3879
B(  4-C , 21-C ) :   1.3942 B(  5-C ,  6-C ) :   1.4249 B(  5-C , 26-H ) :   0.9970
B(  6-C ,  7-C ) :   1.3715 B(  6-C , 27-H ) :   1.0040 B(  7-C ,  8-O ) :   0.9838
B(  7-C , 17-C ) :   1.4073 B(  8-O ,  9-C ) :   0.8407 B(  9-C , 10-C ) :   0.9962
B(  9-C , 28-H ) :   0.9665 B(  9-C , 29-H ) :   0.9640 B( 10-C , 11-O ) :   0.9265
B( 10-C , 12-C ) :   0.9915 B( 10-C , 30-H ) :   0.9677 B( 11-O , 31-H ) :   0.9595
B( 12-C , 13-N ) :   0.9884 B( 12-C , 32-H ) :   0.9777 B( 12-C , 33-H ) :   0.9802
B( 13-N , 14-C ) :   0.9392 B( 13-N , 34-H ) :   0.9594 B( 14-C , 15-C ) :   1.0228
B( 14-C , 16-C ) :   1.0380 B( 14-C , 35-H ) :   0.9629 B( 15-C , 36-H ) :   0.9851
B( 15-C , 37-H ) :   0.9771 B( 15-C , 38-H ) :   0.9834 B( 16-C , 39-H ) :   0.9851
B( 16-C , 40-H ) :   0.9802 B( 16-C , 41-H ) :   0.9858 B( 17-C , 18-C ) :   0.9314
B( 17-C , 21-C ) :   1.4238 B( 18-C , 19-C ) :   0.9894 B( 18-C , 20-O ) :   2.0355
B( 19-C , 42-H ) :   0.9806 B( 19-C , 43-H ) :   0.9626 B( 19-C , 44-H ) :   0.9748
B( 21-C , 45-H ) :   1.0034

FINAL SINGLE POINT ENERGY     -1027.436340940757

DIPOLE MOMENT
-------------
                                X             Y             Z
Electronic contribution:     30.37936      -7.43591       1.50852
Nuclear contribution   :    -30.83328       9.63058      -3.44339
                        -----------------------------------------
Total Dipole Moment    :     -0.45392       2.19466      -1.93486
                        -----------------------------------------
Magnitude (a.u.)       :      2.96079
Magnitude (Debye)      :      7.52573

Rotational constants in cm-1:     0.017348     0.003486     0.003203
Rotational constants in MHz :   520.094806   104.508719    96.028654

                             ****ORCA TERMINATED NORMALLY****
TOTAL RUN TIME: 0 days 0 hours 0 minutes 25 seconds 29 msec
