                         Program Version 5.0.3 -  RELEASE  -
|  1> !RHF def2-SVP TightSCF PAL16
|  2> *xyz 0 1
|  3> C -3.8804406712688704 0.2609772584403513 0.2439872018421627
|  4> N -2.478196953130192 -0.1205750408033347 0.44453606641465904
|  5> C -2.4221459915988666 -1.2789008778923912 1.337884708559342
|  6> C -1.7748258023635153 -0.3429288478121114 -0.8535468769246642
|  7> C -1.560060073886153 1.0093370529775898 -1.6053763816783038
|  8> C -0.6228276397880658 1.972127608460955 -0.8477312686604473
|  9> C 0.570735690991339 1.225049438783866 -0.36679046555026823
| 10> N 1.7116820643927941 1.7877450508266788 0.12837300590673228
| 11> C 2.595092778870636 0.7969155048316702 0.5026718586150354
| 12> C 3.8805954040703283 0.8956922802872734 1.0489980098239817
| 13> C 4.556706767858568 -0.2940449963778525 1.3361340391476197
| 14> C 3.9691133989600265 -1.5323546798443162 1.087002750322166
| 15> C 2.682609246422511 -1.6153558130297114 0.5416966314190358
| 16> C 1.9795284644365505 -0.43154648426699993 0.24373922964710906
| 17> C 0.6967278393299191 -0.14651649042463205 -0.2996307256483199
| 18> C -0.3820400913344603 -1.0654103670854849 -0.7715112584771033
| 19> H -3.970557606564455 1.2056721564802129 -0.2991348558512459
| 20> H -4.376000925488446 0.429161889634316 1.2074721481467157
| 21> H -4.441937530252754 -0.5087187544526848 -0.2976315431333896
| 22> H -1.4028549581616296 -1.454547986529632 1.6954114230162523
| 23> H -2.7972689036701395 -2.1886895865344766 0.8560640465506169
| 24> H -3.016689610670316 -1.1036584512871035 2.242493596904699
| 25> H -2.411394076277178 -0.9862538935318507 -1.4772717179286983
| 26> H -2.507905739889455 1.5127303586080552 -1.8209124602725484
| 27> H -1.1187202678113144 0.7871833321664714 -2.5874712604645165
| 28> H -0.3243766971113437 2.7918589752903973 -1.5104550956329588
| 29> H -1.1483039316721309 2.4112615105029698 0.008058368055397433
| 30> H 1.8889157531681389 2.778159834481083 0.21731862477784739
| 31> H 4.340865120291806 1.8582091891212555 1.2449959694427615
| 32> H 5.55671411102679 -0.250501857387662 1.7612098192770171
| 33> H 4.512721468992069 -2.444722147244435 1.318409803827547
| 34> H 2.2317658597276733 -2.5842593530588194 0.3519805299816175
| 35> H -0.11331985961763501 -1.3976477492565655 -1.7839872014657094
| 36> H -0.4239066379818886 -1.9754480640733296 -0.16598928281573308
| 37> *
| 38>
| 39>                          ****END OF INPUT****

CARTESIAN COORDINATES (ANGSTROEM)
---------------------------------
  C     -3.880441    0.260977    0.243987
  N     -2.478197   -0.120575    0.444536
  C     -2.422146   -1.278901    1.337885
  C     -1.774826   -0.342929   -0.853547
  C     -1.560060    1.009337   -1.605376
  C     -0.622828    1.972128   -0.847731
  C      0.570736    1.225049   -0.366790
  N      1.711682    1.787745    0.128373
  C      2.595093    0.796916    0.502672
  C      3.880595    0.895692    1.048998
  C      4.556707   -0.294045    1.336134
  C      3.969113   -1.532355    1.087003
  C      2.682609   -1.615356    0.541697
  C      1.979528   -0.431546    0.243739
  C      0.696728   -0.146516   -0.299631
  C     -0.382040   -1.065410   -0.771511
  H     -3.970558    1.205672   -0.299135
  H     -4.376001    0.429162    1.207472
  H     -4.441938   -0.508719   -0.297632
  H     -1.402855   -1.454548    1.695411
  H     -2.797269   -2.188690    0.856064
  H     -3.016690   -1.103658    2.242494
  H     -2.411394   -0.986254   -1.477272
  H     -2.507906    1.512730   -1.820912
  H     -1.118720    0.787183   -2.587471
  H     -0.324377    2.791859   -1.510455
  H     -1.148304    2.411262    0.008058
  H      1.888916    2.778160    0.217319
  H      4.340865    1.858209    1.244996
  H      5.556714   -0.250502    1.761210
  H      4.512721   -2.444722    1.318410
  H      2.231766   -2.584259    0.351981
  H     -0.113320   -1.397648   -1.783987
  H     -0.423907   -1.975448   -0.165989

 Total Charge           Charge          ....    0
 Multiplicity           Mult            ....    1
 Number of Electrons    NEL             ....  116
 Basis Dimension        Dim             ....  314

ORBITAL ENERGIES
----------------

  NO   OCC          E(Eh)            E(eV)
   0   2.0000     -15.592058      -424.2815
   1   2.0000     -15.542529      -422.9337
   2   2.0000     -11.261813      -306.4495
   3   2.0000     -11.259796      -306.3946
   4   2.0000     -11.256617      -306.3081
   5   2.0000     -11.247779      -306.0676
   6   2.0000     -11.243536      -305.9522
   7   2.0000     -11.236157      -305.7514
   8   2.0000     -11.230479      -305.5969
   9   2.0000     -11.229125      -305.5600
  10   2.0000     -11.227412      -305.5134
  11   2.0000     -11.227379      -305.5125
  12   2.0000     -11.224236      -305.4270
  13   2.0000     -11.218525      -305.2716
  14   2.0000     -11.215283      -305.1834
  15   2.0000     -11.202372      -304.8320
  16   2.0000      -1.283464       -34.9248
  17   2.0000      -1.204972       -32.7889
  18   2.0000      -1.115707       -30.3599
  19   2.0000      -1.088081       -29.6082
  20   2.0000      -1.033949       -28.1352
  21   2.0000      -0.994486       -27.0613
  22   2.0000      -0.968730       -26.3605
  23   2.0000      -0.959049       -26.0971
  24   2.0000      -0.932544       -25.3758
  25   2.0000      -0.878247       -23.8983
  26   2.0000      -0.852136       -23.1878
  27   2.0000      -0.804929       -21.9032
  28   2.0000      -0.788148       -21.4466
  29   2.0000      -0.777073       -21.1452
  30   2.0000      -0.715415       -19.4674
  31   2.0000      -0.711354       -19.3569
  32   2.0000      -0.672553       -18.3011
  33   2.0000      -0.658113       -17.9082
  34   2.0000      -0.632116       -17.2008
  35   2.0000      -0.621117       -16.9015
  36   2.0000      -0.616522       -16.7764
  37   2.0000      -0.602845       -16.4042
  38   2.0000      -0.593469       -16.1491
  39   2.0000      -0.589808       -16.0495
  40   2.0000      -0.571682       -15.5562
  41   2.0000      -0.565331       -15.3834
  42   2.0000      -0.553281       -15.0555
  43   2.0000      -0.549736       -14.9591
  44   2.0000      -0.542514       -14.7626
  45   2.0000      -0.531883       -14.4733
  46   2.0000      -0.509711       -13.8699
  47   2.0000      -0.508025       -13.8241
  48   2.0000      -0.501744       -13.6532
  49   2.0000      -0.487923       -13.2771
  50   2.0000      -0.479167       -13.0388
  51   2.0000      -0.464002       -12.6261
  52   2.0000      -0.454803       -12.3758
  53   2.0000      -0.445397       -12.1199
  54   2.0000      -0.366999        -9.9865
  55   2.0000      -0.351063        -9.5529
  56   2.0000      -0.297444        -8.0939
  57   2.0000      -0.263810        -7.1786
  58   0.0000       0.124987         3.4011
  59   0.0000       0.167698         4.5633
  60   0.0000       0.171090         4.6556
  61   0.0000       0.182966         4.9788
  62   0.0000       0.197318         5.3693

MULLIKEN ATOMIC CHARGES
-----------------------
   0 C :    0.159093
   1 N :   -0.619755
   2 C :    0.155157
   3 C :    0.040443
   4 C :   -0.027144
   5 C :    0.131663
   6 C :    0.034759
   7 N :   -0.355641
   8 C :    0.188136
   9 C :   -0.079424
  10 C :   -0.029061
  11 C :   -0.053424
  12 C :   -0.023687
  13 C :   -0.069322
  14 C :   -0.236992
  15 C :    0.166313
  16 H :    0.026943
  17 H :    0.032215
  18 H :    0.000115
  19 H :    0.049099
  20 H :   -0.000377
  21 H :    0.027285
  22 H :    0.013167
  23 H :    0.030288
  24 H :    0.036780
  25 H :    0.034369
  26 H :    0.054103
  27 H :    0.147646
  28 H :    0.014825
  29 H :    0.033203
  30 H :    0.029559
  31 H :    0.020572
  32 H :    0.038087
  33 H :    0.031007
Sum of atomic charges:    0.0000000

LOEWDIN ATOMIC CHARGES
----------------------
   0 C :    0.056283
   1 N :   -0.208923
   2 C :    0.054866
   3 C :    0.063390
   4 C :   -0.008971
   5 C :   -0.011176
   6 C :    0.035005
   7 N :    0.000296
   8 C :    0.036235
   9 C :   -0.056051
  10 C :   -0.035302
  11 C :   -0.053802
  12 C :   -0.020021
  13 C :   -0.051966
  14 C :   -0.113582
  15 C :   -0.002280
  16 H :    0.008613
  17 H :    0.013729
  18 H :   -0.008261
  19 H :    0.015783
  20 H :   -0.009606
  21 H :    0.012704
  22 H :   -0.006153
  23 H :    0.012368
  24 H :    0.018517
  25 H :    0.020030
  26 H :    0.028077
  27 H :    0.083671
  28 H :    0.021744
  29 H :    0.023411
  30 H :    0.022382
  31 H :    0.021122
  32 H :    0.021652
  33 H :    0.016214

  Mayer bond orders larger than 0.100000
B(  0-C ,  1-N ) :   0.9460 B(  0-C , 16-H ) :   0.9919 B(  0-C , 17-H ) :   0.9920
B(  0-C , 18-H ) :   0.9750 B(  1-N ,  2-C ) :   0.9461 B(  1-N ,  3-C ) :   0.9161
B(  2-C , 19-H ) :   0.9887 B(  2-C , 20-H ) :   0.9764 B(  2-C , 21-H ) :   0.9915
B(  3-C ,  4-C ) :   1.0327 B(  3-C , 15-C ) :   1.0513 B(  3-C , 22-H ) :   0.9679
B(  4-C ,  5-C ) :   1.0332 B(  4-C , 23-H ) :   0.9767 B(  4-C , 24-H ) :   0.9726
B(  5-C ,  6-C ) :   0.9697 B(  5-C , 25-H ) :   0.9663 B(  5-C , 26-H ) :   0.9433
B(  6-C ,  7-N ) :   1.1245 B(  6-C , 14-C ) :   1.6941 B(  7-N ,  8-C ) :   1.0874
B(  7-N , 27-H ) :   0.9486 B(  8-C ,  9-C ) :   1.3378 B(  8-C , 13-C ) :   1.3277
B(  9-C , 10-C ) :   1.4662 B(  9-C , 28-H ) :   1.0097 B( 10-C , 11-C ) :   1.3575
B( 10-C , 29-H ) :   0.9963 B( 11-C , 12-C ) :   1.4817 B( 11-C , 30-H ) :   0.9998
B( 12-C , 13-C ) :   1.3247 B( 12-C , 31-H ) :   1.0046 B( 13-C , 14-C ) :   1.2502
B( 14-C , 15-C ) :   0.9423 B( 15-C , 32-H ) :   0.9554 B( 15-C , 33-H ) :   0.9687

FINAL SINGLE POINT ENERGY      -649.049860912890

DIPOLE MOMENT
-------------
                                X             Y             Z
Electronic contribution:     16.47095       2.89210       1.05354
Nuclear contribution   :    -17.07837      -2.27602      -1.31769
                        -----------------------------------------
Total Dipole Moment    :     -0.60742       0.61608      -0.26416
                        -----------------------------------------
Magnitude (a.u.)       :      0.90460
Magnitude (Debye)      :      2.29930

Rotational constants in cm-1:     0.039352     0.010836     0.009501
Rotational constants in MHz :  1179.756359   324.847802   284.835418

                             ****ORCA TERMINATED NORMALLY****
TOTAL RUN TIME: 0 days 0 hours 0 minutes 15 seconds 550 msec
