                         Program Version 5.0.3 -  RELEASE  -
|  1> !RHF def2-SVP TightSCF PAL16
|  2> *xyz 0 1
|  3> C -4.413928636433292 -0.8757223797442452 0.8838267680690727
|  4> C -3.8153379329818278 -1.3388133477705928 -0.4432883125739427
|  5> C -4.6020637070281305 -2.554429744356297 -0.9501372574866241
|  6> C -2.336621110449477 -1.6777874099068437 -0.2765361442892241
|  7> O -1.9804981905249228 -2.8635802757046864 -0.30432452721770636
|  8> N -1.3966215595354494 -0.6887220383014357 -0.04931966397563529
|  9> C -0.006605006424417107 -1.1083575732697584 0.19438227977124398
| 10> C 0.783364933590868 0.1267477589847479 0.6483090165973077
| 11> C 2.1755941220774178 0.22784298765054697 0.01354466172085675
| 12> C 3.09869038629573 -0.9153091170818435 0.46386274886078893
| 13> N 4.400787313839508 -0.8957113663178994 -0.22194521417380017
| 14> C 5.232477860602952 0.23646028515973042 0.19359519637118128
| 15> C 5.120117407571708 -2.148652018945724 0.030628333410897907
| 16> C -0.16664419128223534 1.2288736682950383 0.2549492649162581
| 17> C 0.09168385066287967 2.5975828772274236 0.29201657658837304
| 18> C -0.9368350153299109 3.4729123611647523 -0.06869962720671896
| 19> N -0.7013298633725413 4.922364565838438 -0.045143601619779775
| 20> O 0.4157272977654283 5.318784500852628 0.31642695030091006
| 21> O -1.6343817981895647 5.6631080549613175 -0.3860488476302781
| 22> C -2.1957091774839435 2.978234957484249 -0.4472429998840385
| 23> C -2.4385966759110254 1.5959493713515176 -0.46466092738467685
| 24> C -1.4250722677283225 0.7191913326703679 -0.10696604818887993
| 25> H -4.38197769249531 -1.6796881058775066 1.628334123762081
| 26> H -3.875652635673865 -0.027411427978236955 1.3138161609803525
| 27> H -5.4596501736687975 -0.5777125562000143 0.7537224051676578
| 28> H -3.9165717881781883 -0.57995916042708 -1.220040569909973
| 29> H -5.651457465063592 -2.2925818640193953 -1.122693025032098
| 30> H -4.573166105444187 -3.3824307380243583 -0.2329465315115116
| 31> H -4.186816372674693 -2.9193510068774473 -1.8960919031764991
| 32> H 0.3753077179677912 -1.5272190708354751 -0.7457652958518841
| 33> H 0.021671513547463855 -1.9003869610598392 0.9521500205368303
| 34> H 0.865461514311217 0.12833210346546237 1.743053498479
| 35> H 2.6207259215591523 1.189671355512943 0.29133350460181195
| 36> H 2.0892390951295408 0.2281981813025341 -1.0812400624499148
| 37> H 2.5992562978395926 -1.8640087481849066 0.23236411231431886
| 38> H 3.229735707546371 -0.8844646279342778 1.5534651126112755
| 39> H 5.4052778797434105 0.24667359499062932 1.2757960057993718
| 40> H 4.781305507851561 1.1900576445744433 -0.09661002526852333
| 41> H 6.2068144034228245 0.2019032814207122 -0.30765967862284477
| 42> H 5.327118654530561 -2.2978714060805485 1.0966224345844604
| 43> H 6.07181911529231 -2.1638240020042816 -0.5124526077993787
| 44> H 4.542341300650617 -3.0057196861817803 -0.3332026713750013
| 45> H 1.0664525400148503 2.9660319851317127 0.6003037819715357
| 46> H -3.0007895031512573 3.6548804834572954 -0.730609032506696
| 47> H -3.4246434728019244 1.2759132815896148 -0.7666170883731622
| 48> *
| 49>
| 50>                          ****END OF INPUT****

CARTESIAN COORDINATES (ANGSTROEM)
---------------------------------
  C     -4.413929   -0.875722    0.883827
  C     -3.815338   -1.338813   -0.443288
  C     -4.602064   -2.554430   -0.950137
  C     -2.336621   -1.677787   -0.276536
  O     -1.980498   -2.863580   -0.304325
  N     -1.396622   -0.688722   -0.049320
  C     -0.006605   -1.108358    0.194382
  C      0.783365    0.126748    0.648309
  C      2.175594    0.227843    0.013545
  C      3.098690   -0.915309    0.463863
  N      4.400787   -0.895711   -0.221945
  C      5.232478    0.236460    0.193595
  C      5.120117   -2.148652    0.030628
  C     -0.166644    1.228874    0.254949
  C      0.091684    2.597583    0.292017
  C     -0.936835    3.472912   -0.068700
  N     -0.701330    4.922365   -0.045144
  O      0.415727    5.318785    0.316427
  O     -1.634382    5.663108   -0.386049
  C     -2.195709    2.978235   -0.447243
  C     -2.438597    1.595949   -0.464661
  C     -1.425072    0.719191   -0.106966
  H     -4.381978   -1.679688    1.628334
  H     -3.875653   -0.027411    1.313816
  H     -5.459650   -0.577713    0.753722
  H     -3.916572   -0.579959   -1.220041
  H     -5.651457   -2.292582   -1.122693
  H     -4.573166   -3.382431   -0.232947
  H     -4.186816   -2.919351   -1.896092
  H      0.375308   -1.527219   -0.745765
  H      0.021672   -1.900387    0.952150
  H      0.865462    0.128332    1.743053
  H      2.620726    1.189671    0.291334
  H      2.089239    0.228198   -1.081240
  H      2.599256   -1.864009    0.232364
  H      3.229736   -0.884465    1.553465
  H      5.405278    0.246674    1.275796
  H      4.781306    1.190058   -0.096610
  H      6.206814    0.201903   -0.307660
  H      5.327119   -2.297871    1.096622
  H      6.071819   -2.163824   -0.512453
  H      4.542341   -3.005720   -0.333203
  H      1.066453    2.966032    0.600304
  H     -3.000790    3.654880   -0.730609
  H     -3.424643    1.275913   -0.766617

 Total Charge           Charge          ....    0
 Multiplicity           Mult            ....    1
 Number of Electrons    NEL             ....  164
 Basis Dimension        Dim             ....  423

ORBITAL ENERGIES
----------------

  NO   OCC          E(Eh)            E(eV)
   0   2.0000     -20.593093      -560.3666
   1   2.0000     -20.592690      -560.3556
   2   2.0000     -20.535110      -558.7887
   3   2.0000     -15.848932      -431.2714
   4   2.0000     -15.626184      -425.2101
   5   2.0000     -15.553601      -423.2350
   6   2.0000     -11.375776      -309.5506
   7   2.0000     -11.329878      -308.3017
   8   2.0000     -11.312918      -307.8401
   9   2.0000     -11.291167      -307.2483
  10   2.0000     -11.287405      -307.1459
  11   2.0000     -11.285350      -307.0900
  12   2.0000     -11.273880      -306.7779
  13   2.0000     -11.270518      -306.6864
  14   2.0000     -11.265432      -306.5480
  15   2.0000     -11.263965      -306.5081
  16   2.0000     -11.262321      -306.4633
  17   2.0000     -11.255945      -306.2898
  18   2.0000     -11.255107      -306.2670
  19   2.0000     -11.246581      -306.0350
  20   2.0000     -11.244994      -305.9918
  21   2.0000     -11.230927      -305.6091
  22   2.0000      -1.577937       -42.9378
  23   2.0000      -1.381654       -37.5967
  24   2.0000      -1.373776       -37.3823
  25   2.0000      -1.288640       -35.0657
  26   2.0000      -1.218632       -33.1607
  27   2.0000      -1.184445       -32.2304
  28   2.0000      -1.116584       -30.3838
  29   2.0000      -1.086472       -29.5644
  30   2.0000      -1.080550       -29.4033
  31   2.0000      -1.035401       -28.1747
  32   2.0000      -0.989151       -26.9162
  33   2.0000      -0.963292       -26.2125
  34   2.0000      -0.946722       -25.7616
  35   2.0000      -0.937234       -25.5034
  36   2.0000      -0.915959       -24.9245
  37   2.0000      -0.874097       -23.7854
  38   2.0000      -0.864964       -23.5369
  39   2.0000      -0.830478       -22.5985
  40   2.0000      -0.810058       -22.0428
  41   2.0000      -0.791593       -21.5403
  42   2.0000      -0.782222       -21.2853
  43   2.0000      -0.762787       -20.7565
  44   2.0000      -0.725216       -19.7341
  45   2.0000      -0.713911       -19.4265
  46   2.0000      -0.710196       -19.3254
  47   2.0000      -0.692711       -18.8496
  48   2.0000      -0.686560       -18.6822
  49   2.0000      -0.664322       -18.0771
  50   2.0000      -0.653962       -17.7952
  51   2.0000      -0.648737       -17.6530
  52   2.0000      -0.642392       -17.4804
  53   2.0000      -0.639679       -17.4065
  54   2.0000      -0.627876       -17.0854
  55   2.0000      -0.620433       -16.8828
  56   2.0000      -0.609433       -16.5835
  57   2.0000      -0.599382       -16.3100
  58   2.0000      -0.581830       -15.8324
  59   2.0000      -0.577037       -15.7020
  60   2.0000      -0.564289       -15.3551
  61   2.0000      -0.557097       -15.1594
  62   2.0000      -0.554456       -15.0875
  63   2.0000      -0.552490       -15.0340
  64   2.0000      -0.540180       -14.6991
  65   2.0000      -0.536738       -14.6054
  66   2.0000      -0.527077       -14.3425
  67   2.0000      -0.522554       -14.2194
  68   2.0000      -0.515678       -14.0323
  69   2.0000      -0.505655       -13.7596
  70   2.0000      -0.499485       -13.5917
  71   2.0000      -0.494530       -13.4569
  72   2.0000      -0.493900       -13.4397
  73   2.0000      -0.491513       -13.3748
  74   2.0000      -0.489947       -13.3321
  75   2.0000      -0.477987       -13.0067
  76   2.0000      -0.454444       -12.3661
  77   2.0000      -0.448439       -12.2027
  78   2.0000      -0.437849       -11.9145
  79   2.0000      -0.374710       -10.1964
  80   2.0000      -0.366416        -9.9707
  81   2.0000      -0.335277        -9.1233
  82   0.0000       0.037719         1.0264
  83   0.0000       0.090017         2.4495
  84   0.0000       0.138387         3.7657
  85   0.0000       0.159096         4.3292
  86   0.0000       0.163019         4.4360

MULLIKEN ATOMIC CHARGES
-----------------------
   0 C :   -0.009798
   1 C :   -0.329770
   2 C :    0.058710
   3 C :    0.529159
   4 O :   -0.443862
   5 N :   -0.679119
   6 C :    0.337102
   7 C :   -0.152249
   8 C :   -0.004953
   9 C :    0.184966
  10 N :   -0.629458
  11 C :    0.145558
  12 C :    0.151228
  13 C :   -0.184972
  14 C :    0.036575
  15 C :    0.085873
  16 N :    0.347865
  17 O :   -0.359830
  18 O :   -0.358096
  19 C :    0.032950
  20 C :   -0.147651
  21 C :    0.397514
  22 H :    0.048692
  23 H :    0.048049
  24 H :    0.049730
  25 H :    0.067242
  26 H :    0.027227
  27 H :    0.048814
  28 H :    0.042765
  29 H :    0.058888
  30 H :    0.063194
  31 H :    0.062339
  32 H :    0.037118
  33 H :    0.046801
  34 H :    0.029581
  35 H :    0.002716
  36 H :    0.002936
  37 H :    0.037969
  38 H :    0.036090
  39 H :    0.002406
  40 H :    0.034816
  41 H :    0.034376
  42 H :    0.077037
  43 H :    0.086164
  44 H :    0.047308
Sum of atomic charges:   -0.0000000

LOEWDIN ATOMIC CHARGES
----------------------
   0 C :   -0.021864
   1 C :   -0.062088
   2 C :   -0.014213
   3 C :    0.206744
   4 O :   -0.297703
   5 N :   -0.110228
   6 C :    0.106134
   7 C :   -0.017144
   8 C :   -0.009152
   9 C :    0.064384
  10 N :   -0.204940
  11 C :    0.054516
  12 C :    0.056255
  13 C :   -0.049457
  14 C :    0.034523
  15 C :   -0.050693
  16 N :    0.379571
  17 O :   -0.289009
  18 O :   -0.287278
  19 C :    0.040620
  20 C :   -0.064747
  21 C :    0.098298
  22 H :    0.026405
  23 H :    0.015874
  24 H :    0.024498
  25 H :    0.021751
  26 H :    0.015497
  27 H :    0.024913
  28 H :    0.022777
  29 H :    0.020759
  30 H :    0.025531
  31 H :    0.027567
  32 H :    0.012944
  33 H :    0.023353
  34 H :    0.012670
  35 H :   -0.007647
  36 H :   -0.007123
  37 H :    0.011504
  38 H :    0.016303
  39 H :   -0.007242
  40 H :    0.014037
  41 H :    0.013152
  42 H :    0.047373
  43 H :    0.050136
  44 H :    0.032438

  Mayer bond orders larger than 0.100000
B(  0-C ,  1-C ) :   1.0017 B(  0-C , 22-H ) :   0.9799 B(  0-C , 23-H ) :   0.9875
B(  0-C , 24-H ) :   0.9873 B(  1-C ,  2-C ) :   1.0433 B(  1-C ,  3-C ) :   0.9250
B(  1-C , 25-H ) :   0.9541 B(  2-C , 26-H ) :   0.9855 B(  2-C , 27-H ) :   0.9776
B(  2-C , 28-H ) :   0.9839 B(  3-C ,  4-O ) :   1.9403 B(  3-C ,  5-N ) :   1.0346
B(  5-N ,  6-C ) :   0.8435 B(  5-N , 21-C ) :   0.9399 B(  6-C ,  7-C ) :   0.9994
B(  6-C , 29-H ) :   0.9862 B(  6-C , 30-H ) :   0.9793 B(  7-C ,  8-C ) :   1.0319
B(  7-C , 13-C ) :   0.9683 B(  7-C , 31-H ) :   0.9291 B(  8-C ,  9-C ) :   1.0358
B(  8-C , 32-H ) :   0.9678 B(  8-C , 33-H ) :   0.9622 B(  9-C , 10-N ) :   0.9539
B(  9-C , 34-H ) :   0.9760 B(  9-C , 35-H ) :   0.9629 B( 10-N , 11-C ) :   0.9375
B( 10-N , 12-C ) :   0.9453 B( 11-C , 36-H ) :   0.9755 B( 11-C , 37-H ) :   0.9913
B( 11-C , 38-H ) :   0.9915 B( 12-C , 39-H ) :   0.9764 B( 12-C , 40-H ) :   0.9922
B( 12-C , 41-H ) :   0.9916 B( 13-C , 14-C ) :   1.4714 B( 13-C , 21-C ) :   1.3677
B( 14-C , 15-C ) :   1.3697 B( 14-C , 42-H ) :   1.0027 B( 15-C , 16-N ) :   0.8367
B( 15-C , 19-C ) :   1.4063 B( 16-N , 17-O ) :   1.4988 B( 16-N , 18-O ) :   1.5040
B( 17-O , 18-O ) :   0.1967 B( 19-C , 20-C ) :   1.4216 B( 19-C , 43-H ) :   0.9911
B( 20-C , 21-C ) :   1.3648 B( 20-C , 44-H ) :   1.0166

FINAL SINGLE POINT ENERGY     -1006.332156146633

DIPOLE MOMENT
-------------
                                X             Y             Z
Electronic contribution:    -12.29556      25.44919      -2.19129
Nuclear contribution   :     12.10789     -26.71363       2.62142
                        -----------------------------------------
Total Dipole Moment    :     -0.18767      -1.26444       0.43013
                        -----------------------------------------
Magnitude (a.u.)       :      1.34871
Magnitude (Debye)      :      3.42816

Rotational constants in cm-1:     0.008105     0.006558     0.003725
Rotational constants in MHz :   242.993722   196.598851   111.682970

                             ****ORCA TERMINATED NORMALLY****
TOTAL RUN TIME: 0 days 0 hours 0 minutes 27 seconds 869 msec
