                         Program Version 5.0.3 -  RELEASE  -
|  1> !RHF def2-SVP TightSCF PAL16
|  2> *xyz 0 1
|  3> C 4.9441011043230985 1.6161152928176166 -0.26158185287545904
|  4> C 4.290419255424766 0.44837940761598727 -0.1333275869497248
|  5> C 4.94906081821197 -0.7621945321064897 0.4682220365715988
|  6> C 2.8678136600494617 0.2643516234711532 -0.6059633106035365
|  7> N 2.0213040556569 0.19461274110751847 0.5739409561707401
|  8> C 0.6321912114194482 0.12811889594129913 0.41865514946147786
|  9> C -0.17719846868129033 0.4241415315157622 1.5230461529887782
| 10> C -1.5715861698758427 0.3174336543600743 1.4598647719234659
| 11> C -2.201942673526086 -0.1203793969315842 0.28921136974646017
| 12> C -3.7165402912077288 -0.24584400705431775 0.2422185500628501
| 13> C -4.155946838231056 -1.6923436613352456 0.013019925506067863
| 14> C -4.368109693541895 0.6515156336017668 -0.7970778578339813
| 15> O -3.8892900535958317 1.0827618524195541 -1.8327540116479693
| 16> O -5.652591859415454 0.939882462739204 -0.4875945988374398
| 17> C -1.395556989704154 -0.459784156096562 -0.8039603699903003
| 18> C -0.0003582168699085211 -0.3494070704392058 -0.7323527089814499
| 19> H 4.468785952609423 2.4877829383551657 -0.7019802336610068
| 20> H 5.970085710667443 1.7329609452696855 0.07452332748880179
| 21> H 5.987689856399803 -0.5641209370562527 0.7538614986563291
| 22> H 4.414855213244461 -1.0862519943072553 1.3669730209627238
| 23> H 4.95508519461927 -1.588031831715565 -0.2505674993411488
| 24> H 2.8053696627778413 -0.6543670719142792 -1.2007331739535048
| 25> H 2.5633164921051583 1.1032671997094283 -1.244221841068068
| 26> H 2.2831307437914905 0.8900978427413075 1.2682029278598477
| 27> H 0.2778390119014996 0.7445646766659783 2.4572901326204457
| 28> H -2.1535828508270973 0.5703953688181272 2.3432525875879984
| 29> H -4.10745182853449 0.07780476970990374 1.2167517175125866
| 30> H -5.245853744921503 -1.7829385174201402 0.07988098793111036
| 31> H -3.8634922514818233 -2.054445135406311 -0.9790883049173665
| 32> H -3.71575325605823 -2.3617682829441695 0.7602038893339627
| 33> H -5.946807803510078 1.507026361060472 -1.231493029853152
| 34> H -1.8420469420257126 -0.8126774114266542 -1.7316786836825997
| 35> H 0.5730619888061728 -0.6466591917660797 -1.6046445682396107
| 36> *
| 37>
| 38>                          ****END OF INPUT****

CARTESIAN COORDINATES (ANGSTROEM)
---------------------------------
  C      4.944101    1.616115   -0.261582
  C      4.290419    0.448379   -0.133328
  C      4.949061   -0.762195    0.468222
  C      2.867814    0.264352   -0.605963
  N      2.021304    0.194613    0.573941
  C      0.632191    0.128119    0.418655
  C     -0.177198    0.424142    1.523046
  C     -1.571586    0.317434    1.459865
  C     -2.201943   -0.120379    0.289211
  C     -3.716540   -0.245844    0.242219
  C     -4.155947   -1.692344    0.013020
  C     -4.368110    0.651516   -0.797078
  O     -3.889290    1.082762   -1.832754
  O     -5.652592    0.939882   -0.487595
  C     -1.395557   -0.459784   -0.803960
  C     -0.000358   -0.349407   -0.732353
  H      4.468786    2.487783   -0.701980
  H      5.970086    1.732961    0.074523
  H      5.987690   -0.564121    0.753861
  H      4.414855   -1.086252    1.366973
  H      4.955085   -1.588032   -0.250567
  H      2.805370   -0.654367   -1.200733
  H      2.563316    1.103267   -1.244222
  H      2.283131    0.890098    1.268203
  H      0.277839    0.744565    2.457290
  H     -2.153583    0.570395    2.343253
  H     -4.107452    0.077805    1.216752
  H     -5.245854   -1.782939    0.079881
  H     -3.863492   -2.054445   -0.979088
  H     -3.715753   -2.361768    0.760204
  H     -5.946808    1.507026   -1.231493
  H     -1.842047   -0.812677   -1.731679
  H      0.573062   -0.646659   -1.604645

 Total Charge           Charge          ....    0
 Multiplicity           Mult            ....    1
 Number of Electrons    NEL             ....  118
 Basis Dimension        Dim             ....  309

ORBITAL ENERGIES
----------------

  NO   OCC          E(Eh)            E(eV)
   0   2.0000     -20.604727      -560.6831
   1   2.0000     -20.541252      -558.9559
   2   2.0000     -15.563392      -423.5014
   3   2.0000     -11.387484      -309.8692
   4   2.0000     -11.275779      -306.8295
   5   2.0000     -11.266846      -306.5865
   6   2.0000     -11.258873      -306.3695
   7   2.0000     -11.245863      -306.0155
   8   2.0000     -11.241023      -305.8838
   9   2.0000     -11.238251      -305.8083
  10   2.0000     -11.238064      -305.8033
  11   2.0000     -11.233158      -305.6698
  12   2.0000     -11.229786      -305.5780
  13   2.0000     -11.227925      -305.5274
  14   2.0000     -11.227607      -305.5187
  15   2.0000     -11.227198      -305.5076
  16   2.0000      -1.446350       -39.3572
  17   2.0000      -1.331076       -36.2204
  18   2.0000      -1.232365       -33.5344
  19   2.0000      -1.137720       -30.9589
  20   2.0000      -1.085494       -29.5378
  21   2.0000      -1.060449       -28.8563
  22   2.0000      -1.000037       -27.2124
  23   2.0000      -0.977838       -26.6083
  24   2.0000      -0.927514       -25.2389
  25   2.0000      -0.909541       -24.7499
  26   2.0000      -0.895863       -24.3777
  27   2.0000      -0.832364       -22.6498
  28   2.0000      -0.810892       -22.0655
  29   2.0000      -0.768042       -20.8995
  30   2.0000      -0.734240       -19.9797
  31   2.0000      -0.701662       -19.0932
  32   2.0000      -0.697071       -18.9683
  33   2.0000      -0.691350       -18.8126
  34   2.0000      -0.656857       -17.8740
  35   2.0000      -0.641833       -17.4652
  36   2.0000      -0.637588       -17.3497
  37   2.0000      -0.635009       -17.2795
  38   2.0000      -0.623380       -16.9630
  39   2.0000      -0.601822       -16.3764
  40   2.0000      -0.597322       -16.2540
  41   2.0000      -0.585440       -15.9306
  42   2.0000      -0.580776       -15.8037
  43   2.0000      -0.568565       -15.4714
  44   2.0000      -0.562819       -15.3151
  45   2.0000      -0.550089       -14.9687
  46   2.0000      -0.544672       -14.8213
  47   2.0000      -0.520725       -14.1696
  48   2.0000      -0.517409       -14.0794
  49   2.0000      -0.508488       -13.8367
  50   2.0000      -0.495485       -13.4828
  51   2.0000      -0.485669       -13.2157
  52   2.0000      -0.484576       -13.1860
  53   2.0000      -0.471579       -12.8323
  54   2.0000      -0.445044       -12.1103
  55   2.0000      -0.422815       -11.5054
  56   2.0000      -0.360566        -9.8115
  57   2.0000      -0.335007        -9.1160
  58   2.0000      -0.290955        -7.9173
  59   0.0000       0.129272         3.5177
  60   0.0000       0.146979         3.9995
  61   0.0000       0.161667         4.3992
  62   0.0000       0.170837         4.6487
  63   0.0000       0.182128         4.9559

MULLIKEN ATOMIC CHARGES
-----------------------
   0 C :   -0.046114
   1 C :   -0.347312
   2 C :    0.082799
   3 C :    0.277763
   4 N :   -0.439343
   5 C :    0.218174
   6 C :   -0.093635
   7 C :    0.002486
   8 C :   -0.147020
   9 C :   -0.143345
  10 C :    0.010353
  11 C :    0.499407
  12 O :   -0.409837
  13 O :   -0.359826
  14 C :    0.058018
  15 C :   -0.134722
  16 H :    0.044725
  17 H :    0.045202
  18 H :    0.029624
  19 H :    0.049095
  20 H :    0.036105
  21 H :    0.039451
  22 H :    0.024075
  23 H :    0.146102
  24 H :    0.018922
  25 H :    0.028746
  26 H :    0.066125
  27 H :    0.049438
  28 H :    0.042319
  29 H :    0.055295
  30 H :    0.223286
  31 H :    0.044773
  32 H :    0.028871
Sum of atomic charges:   -0.0000000

LOEWDIN ATOMIC CHARGES
----------------------
   0 C :   -0.068219
   1 C :   -0.036318
   2 C :   -0.021707
   3 C :    0.079543
   4 N :   -0.107845
   5 C :    0.058418
   6 C :   -0.068993
   7 C :   -0.004382
   8 C :   -0.064752
   9 C :   -0.042551
  10 C :   -0.012342
  11 C :    0.221158
  12 O :   -0.280336
  13 O :   -0.114569
  14 C :    0.018692
  15 C :   -0.074617
  16 H :    0.017568
  17 H :    0.018732
  18 H :    0.020870
  19 H :    0.027118
  20 H :    0.023804
  21 H :    0.017043
  22 H :    0.005656
  23 H :    0.071403
  24 H :    0.020972
  25 H :    0.024480
  26 H :    0.035631
  27 H :    0.021395
  28 H :    0.020860
  29 H :    0.027421
  30 H :    0.113124
  31 H :    0.029446
  32 H :    0.023295

  Mayer bond orders larger than 0.100000
B(  0-C ,  1-C ) :   2.0050 B(  0-C , 16-H ) :   0.9777 B(  0-C , 17-H ) :   0.9753
B(  1-C ,  2-C ) :   0.9897 B(  1-C ,  3-C ) :   1.0156 B(  2-C , 18-H ) :   0.9853
B(  2-C , 19-H ) :   0.9746 B(  2-C , 20-H ) :   0.9755 B(  3-C ,  4-N ) :   0.9266
B(  3-C , 21-H ) :   0.9637 B(  3-C , 22-H ) :   0.9724 B(  4-N ,  5-C ) :   1.0557
B(  4-N , 23-H ) :   0.9367 B(  5-C ,  6-C ) :   1.3674 B(  5-C , 15-C ) :   1.3619
B(  6-C ,  7-C ) :   1.4608 B(  6-C , 24-H ) :   1.0032 B(  7-C ,  8-C ) :   1.4255
B(  7-C , 25-H ) :   0.9980 B(  8-C ,  9-C ) :   0.9811 B(  8-C , 14-C ) :   1.4046
B(  9-C , 10-C ) :   1.0244 B(  9-C , 11-C ) :   0.9242 B(  9-C , 26-H ) :   0.9656
B( 10-C , 27-H ) :   0.9829 B( 10-C , 28-H ) :   0.9806 B( 10-C , 29-H ) :   0.9856
B( 11-C , 12-O ) :   1.9999 B( 11-C , 13-O ) :   1.1250 B( 13-O , 30-H ) :   0.9432
B( 14-C , 15-C ) :   1.4439 B( 14-C , 31-H ) :   0.9950 B( 15-C , 32-H ) :   1.0071

FINAL SINGLE POINT ENERGY      -705.836737932685

DIPOLE MOMENT
-------------
                                X             Y             Z
Electronic contribution:    -15.12000       4.68576      -1.85301
Nuclear contribution   :     15.26941      -4.82682       2.33361
                        -----------------------------------------
Total Dipole Moment    :      0.14941      -0.14106       0.48060
                        -----------------------------------------
Magnitude (a.u.)       :      0.52268
Magnitude (Debye)      :      1.32854

Rotational constants in cm-1:     0.053223     0.006055     0.005902
Rotational constants in MHz :  1595.577422   181.515600   176.939771

                             ****ORCA TERMINATED NORMALLY****
TOTAL RUN TIME: 0 days 0 hours 0 minutes 12 seconds 150 msec
