                         Program Version 5.0.3 -  RELEASE  -
|  1> !RHF def2-SVP TightSCF PAL16
|  2> *xyz 0 1
|  3> C -3.678915999267533 -1.202097388875511 -0.7704884426587654
|  4> C -3.497312529366582 0.193266678195744 -0.15145188927349434
|  5> C -4.357341785425278 0.27818517931836323 1.1250508881076022
|  6> C -3.9856579208080585 1.2727241327706258 -1.1313719047562607
|  7> N -2.1028664437937015 0.43414973371430965 0.2749707638792021
|  8> C -1.0840441640640572 0.34143308879424406 -0.7848489069174739
|  9> C 0.28479659577128263 0.842506614793452 -0.27330490407280505
| 10> O 0.10386669783043911 2.155442381540835 0.2799550117531162
| 11> C 0.8955516363618564 -0.09207538427698837 0.7835880737152908
| 12> O 2.2548836850470457 0.25166050971287834 1.0754785475806032
| 13> C 3.2675903936093564 -0.26429033015563985 0.31330643515216167
| 14> C 3.089973989735821 -1.0398189904191708 -0.8377756825985797
| 15> C 4.194649857428236 -1.513892553945142 -1.5534082071009931
| 16> C 5.486906886637157 -1.2183361291331187 -1.1294633490472368
| 17> C 5.67785389039016 -0.44548015141467323 0.01379326068131684
| 18> C 4.574686309704278 0.0335620741066246 0.7366609268947814
| 19> C 4.816122982347068 0.8191146597130644 1.9146204396344524
| 20> N 5.066067696708277 1.4379085613523739 2.8653498240353956
| 21> H -3.3059488604296954 -1.9865215639635954 -0.10182839671566128
| 22> H -3.1539374149121833 -1.2961739241292103 -1.7271851804106675
| 23> H -4.7380677614110125 -1.4100276179085807 -0.9623812454785959
| 24> H -5.418640302879432 0.12354073759809295 0.897909159698323
| 25> H -4.2634073905538585 1.2592377036793272 1.6060383069803112
| 26> H -4.065437104111261 -0.48307158303392317 1.858457704173773
| 27> H -3.4913199324497843 1.2009901653589556 -2.1056587743936954
| 28> H -3.8084712493127846 2.279326306903356 -0.7350996543031291
| 29> H -5.0626837169927725 1.1769441966143523 -1.313125717568405
| 30> H -1.875423163807761 -0.22409203527520521 1.022160345786315
| 31> H -0.9860353404902285 -0.683907645767291 -1.1562572218576834
| 32> H -1.3655344340830846 0.9866046256823716 -1.6229491421190578
| 33> H 0.9683279152638307 0.9560785803956371 -1.1205564765528078
| 34> H -0.7864042829305946 2.1423702283795296 0.6878705181145564
| 35> H 0.8038370402338166 -1.1508518825499274 0.5163342397308741
| 36> H 0.35861170487180366 0.03427854834850908 1.7310281768171287
| 37> H 2.1058272088626624 -1.2911734115931908 -1.2171571060355346
| 38> H 4.043547886756425 -2.114042803870631 -2.4481479189841586
| 39> H 6.34365378809607 -1.5869770252284203 -1.6885619819083613
| 40> H 6.690693631434957 -0.2164942854329193 0.34112084021751526
| 41> *
| 42>
| 43>                          ****END OF INPUT****

CARTESIAN COORDINATES (ANGSTROEM)
---------------------------------
  C     -3.678916   -1.202097   -0.770488
  C     -3.497313    0.193267   -0.151452
  C     -4.357342    0.278185    1.125051
  C     -3.985658    1.272724   -1.131372
  N     -2.102866    0.434150    0.274971
  C     -1.084044    0.341433   -0.784849
  C      0.284797    0.842507   -0.273305
  O      0.103867    2.155442    0.279955
  C      0.895552   -0.092075    0.783588
  O      2.254884    0.251661    1.075479
  C      3.267590   -0.264290    0.313306
  C      3.089974   -1.039819   -0.837776
  C      4.194650   -1.513893   -1.553408
  C      5.486907   -1.218336   -1.129463
  C      5.677854   -0.445480    0.013793
  C      4.574686    0.033562    0.736661
  C      4.816123    0.819115    1.914620
  N      5.066068    1.437909    2.865350
  H     -3.305949   -1.986522   -0.101828
  H     -3.153937   -1.296174   -1.727185
  H     -4.738068   -1.410028   -0.962381
  H     -5.418640    0.123541    0.897909
  H     -4.263407    1.259238    1.606038
  H     -4.065437   -0.483072    1.858458
  H     -3.491320    1.200990   -2.105659
  H     -3.808471    2.279326   -0.735100
  H     -5.062684    1.176944   -1.313126
  H     -1.875423   -0.224092    1.022160
  H     -0.986035   -0.683908   -1.156257
  H     -1.365534    0.986605   -1.622949
  H      0.968328    0.956079   -1.120556
  H     -0.786404    2.142370    0.687871
  H      0.803837   -1.150852    0.516334
  H      0.358612    0.034279    1.731028
  H      2.105827   -1.291173   -1.217157
  H      4.043548   -2.114043   -2.448148
  H      6.343654   -1.586977   -1.688562
  H      6.690694   -0.216494    0.341121

 Total Charge           Charge          ....    0
 Multiplicity           Mult            ....    1
 Number of Electrons    NEL             ....  134
 Basis Dimension        Dim             ....  352

ORBITAL ENERGIES
----------------

  NO   OCC          E(Eh)            E(eV)
   0   2.0000     -20.595647      -560.4361
   1   2.0000     -20.537474      -558.8531
   2   2.0000     -15.565904      -423.5698
   3   2.0000     -15.561262      -423.4435
   4   2.0000     -11.339820      -308.5722
   5   2.0000     -11.305574      -307.6403
   6   2.0000     -11.293177      -307.3030
   7   2.0000     -11.281273      -306.9791
   8   2.0000     -11.279975      -306.9437
   9   2.0000     -11.275643      -306.8259
  10   2.0000     -11.272943      -306.7524
  11   2.0000     -11.272775      -306.7478
  12   2.0000     -11.271666      -306.7176
  13   2.0000     -11.260125      -306.4036
  14   2.0000     -11.252891      -306.2067
  15   2.0000     -11.234499      -305.7063
  16   2.0000     -11.232435      -305.6501
  17   2.0000     -11.231922      -305.6361
  18   2.0000      -1.408545       -38.3285
  19   2.0000      -1.329477       -36.1769
  20   2.0000      -1.218206       -33.1491
  21   2.0000      -1.196175       -32.5496
  22   2.0000      -1.163575       -31.6625
  23   2.0000      -1.070427       -29.1278
  24   2.0000      -1.052920       -28.6514
  25   2.0000      -1.035163       -28.1682
  26   2.0000      -1.001044       -27.2398
  27   2.0000      -0.943775       -25.6814
  28   2.0000      -0.939803       -25.5733
  29   2.0000      -0.921678       -25.0801
  30   2.0000      -0.879660       -23.9368
  31   2.0000      -0.842661       -22.9300
  32   2.0000      -0.813295       -22.1309
  33   2.0000      -0.766444       -20.8560
  34   2.0000      -0.761079       -20.7100
  35   2.0000      -0.719791       -19.5865
  36   2.0000      -0.697369       -18.9764
  37   2.0000      -0.673897       -18.3377
  38   2.0000      -0.671345       -18.2682
  39   2.0000      -0.664568       -18.0838
  40   2.0000      -0.655017       -17.8239
  41   2.0000      -0.646002       -17.5786
  42   2.0000      -0.635352       -17.2888
  43   2.0000      -0.618013       -16.8170
  44   2.0000      -0.612499       -16.6669
  45   2.0000      -0.602296       -16.3893
  46   2.0000      -0.588611       -16.0169
  47   2.0000      -0.574967       -15.6456
  48   2.0000      -0.563000       -15.3200
  49   2.0000      -0.556822       -15.1519
  50   2.0000      -0.546572       -14.8730
  51   2.0000      -0.541286       -14.7291
  52   2.0000      -0.540059       -14.6957
  53   2.0000      -0.531787       -14.4707
  54   2.0000      -0.527700       -14.3594
  55   2.0000      -0.520338       -14.1591
  56   2.0000      -0.509832       -13.8732
  57   2.0000      -0.502140       -13.6639
  58   2.0000      -0.495396       -13.4804
  59   2.0000      -0.482088       -13.1183
  60   2.0000      -0.472929       -12.8690
  61   2.0000      -0.470861       -12.8128
  62   2.0000      -0.453589       -12.3428
  63   2.0000      -0.438405       -11.9296
  64   2.0000      -0.392945       -10.6926
  65   2.0000      -0.360280        -9.8037
  66   2.0000      -0.335325        -9.1246
  67   0.0000       0.079693         2.1686
  68   0.0000       0.122499         3.3334
  69   0.0000       0.144567         3.9339
  70   0.0000       0.163003         4.4355
  71   0.0000       0.182170         4.9571

MULLIKEN ATOMIC CHARGES
-----------------------
   0 C :    0.046285
   1 C :   -0.254748
   2 C :    0.052851
   3 C :    0.049972
   4 N :   -0.503854
   5 C :    0.149333
   6 C :    0.176323
   7 O :   -0.476566
   8 C :    0.309242
   9 O :   -0.558332
  10 C :    0.440906
  11 C :   -0.174500
  12 C :    0.031313
  13 C :   -0.079195
  14 C :    0.076797
  15 C :   -0.297527
  16 C :    0.090936
  17 N :   -0.105275
  18 H :    0.021134
  19 H :    0.032667
  20 H :    0.033073
  21 H :    0.030815
  22 H :    0.042387
  23 H :    0.021915
  24 H :    0.029807
  25 H :    0.044267
  26 H :    0.033112
  27 H :    0.133055
  28 H :    0.015421
  29 H :    0.053662
  30 H :    0.040384
  31 H :    0.209373
  32 H :    0.028861
  33 H :    0.046758
  34 H :    0.043120
  35 H :    0.054383
  36 H :    0.050429
  37 H :    0.061416
Sum of atomic charges:   -0.0000000

LOEWDIN ATOMIC CHARGES
----------------------
   0 C :   -0.034426
   1 C :    0.004400
   2 C :   -0.023044
   3 C :   -0.023713
   4 N :   -0.151419
   5 C :    0.049670
   6 C :    0.093308
   7 O :   -0.199807
   8 C :    0.125658
   9 O :   -0.175564
  10 C :    0.142036
  11 C :   -0.088574
  12 C :    0.023612
  13 C :   -0.058509
  14 C :    0.043744
  15 C :   -0.112480
  16 C :    0.018240
  17 N :   -0.107733
  18 H :    0.012135
  19 H :    0.013327
  20 H :    0.019967
  21 H :    0.017499
  22 H :    0.020291
  23 H :    0.011446
  24 H :    0.012674
  25 H :    0.022457
  26 H :    0.021138
  27 H :    0.050951
  28 H :   -0.004616
  29 H :    0.021855
  30 H :    0.016574
  31 H :    0.074377
  32 H :    0.004507
  33 H :    0.023734
  34 H :    0.027274
  35 H :    0.034599
  36 H :    0.031180
  37 H :    0.043231

  Mayer bond orders larger than 0.100000
B(  0-C ,  1-C ) :   0.9910 B(  0-C , 18-H ) :   0.9806 B(  0-C , 19-H ) :   0.9817
B(  0-C , 20-H ) :   0.9811 B(  1-C ,  2-C ) :   1.0191 B(  1-C ,  3-C ) :   1.0062
B(  1-C ,  4-N ) :   0.9097 B(  2-C , 21-H ) :   0.9846 B(  2-C , 22-H ) :   0.9839
B(  2-C , 23-H ) :   0.9815 B(  3-C , 24-H ) :   0.9811 B(  3-C , 25-H ) :   0.9813
B(  3-C , 26-H ) :   0.9829 B(  4-N ,  5-C ) :   0.9166 B(  4-N , 27-H ) :   0.9459
B(  5-C ,  6-C ) :   1.0320 B(  5-C , 28-H ) :   0.9638 B(  5-C , 29-H ) :   0.9686
B(  6-C ,  7-O ) :   0.9149 B(  6-C ,  8-C ) :   0.9797 B(  6-C , 30-H ) :   0.9679
B(  7-O , 31-H ) :   0.9509 B(  8-C ,  9-O ) :   0.8364 B(  8-C , 32-H ) :   0.9810
B(  8-C , 33-H ) :   0.9607 B(  9-O , 10-C ) :   1.0459 B( 10-C , 11-C ) :   1.3510
B( 10-C , 15-C ) :   1.3811 B( 11-C , 12-C ) :   1.4006 B( 11-C , 34-H ) :   1.0041
B( 12-C , 13-C ) :   1.4111 B( 12-C , 35-H ) :   0.9974 B( 13-C , 14-C ) :   1.4207
B( 13-C , 36-H ) :   1.0003 B( 14-C , 15-C ) :   1.4120 B( 14-C , 37-H ) :   1.0008
B( 15-C , 16-C ) :   1.0214 B( 16-C , 17-N ) :   3.0269

FINAL SINGLE POINT ENERGY      -799.793368352396

DIPOLE MOMENT
-------------
                                X             Y             Z
Electronic contribution:     36.61872       2.86144       7.85484
Nuclear contribution   :    -38.31965      -5.00968      -9.84499
                        -----------------------------------------
Total Dipole Moment    :     -1.70094      -2.14824      -1.99015
                        -----------------------------------------
Magnitude (a.u.)       :      3.38656
Magnitude (Debye)      :      8.60796

Rotational constants in cm-1:     0.030567     0.005320     0.004841
Rotational constants in MHz :   916.370466   159.495507   145.144096

                             ****ORCA TERMINATED NORMALLY****
TOTAL RUN TIME: 0 days 0 hours 0 minutes 16 seconds 767 msec
