                         Program Version 5.0.3 -  RELEASE  -
|  1> !RHF def2-SVP TightSCF PAL16
|  2> *xyz 0 1
|  3> O -2.0084758348633147 -1.7304396465134393 0.7505711078946866
|  4> C -2.0004326718574377 -0.7423394782597663 0.01700098950150513
|  5> C -3.1658646255163503 0.23599538303958398 -0.0012826500346522227
|  6> C -4.308179508542283 -0.12901217544599933 0.9475277967494591
|  7> C -5.031492122039525 -1.4156907656381899 0.5473065445145822
|  8> N -6.333309221056976 -1.512958181407813 1.1883598893023075
|  9> C -6.6243733529813476 -2.129568099126453 2.3726371494900036
| 10> C -7.971664345583804 -1.9364990419276107 2.577726342804573
| 11> C -8.401211376689263 -1.192452440462332 1.4612931590728349
| 12> N -7.404785014514614 -0.931222380924744 0.6102428794097534
| 13> N -0.950866733853102 -0.47569039204292923 -0.8601017697571527
| 14> C 0.24578753865246247 -1.3268523202820568 -0.7506213666626577
| 15> C 1.109751806767067 -1.3275273079342886 -2.0275858170695327
| 16> N 1.3776748668224872 0.03921219865867178 -2.5332877114600603
| 17> C 2.4132602502769913 0.7245061173031312 -1.8808565872186858
| 18> C 2.8710068469005994 1.9280839802553589 -2.3839759753844536
| 19> C 3.900104170392553 2.5662702210619353 -1.7116048984020316
| 20> C 4.397734600339787 3.9059864829753086 -2.225101801096247
| 21> F 5.703879015909838 4.16085724845649 -1.9342592240153036
| 22> F 3.684416724123627 4.952915160043801 -1.7157523052782213
| 23> F 4.29427430251817 4.02620046024553 -3.5834553022174447
| 24> N 4.44618981816247 2.0429917773430812 -0.5886252146599068
| 25> C 3.9772259392736062 0.8534814840279322 -0.17869477630148625
| 26> C 4.596508925144477 0.23661903120028277 1.0129076538520654
| 27> C 5.548849463883865 0.927429231101329 1.7884864893941388
| 28> C 6.149273511649857 0.3393067751321738 2.907521537680981
| 29> C 5.807956873813552 -0.9574581912597058 3.279755733820598
| 30> C 4.8685456721680485 -1.6650128899481973 2.535820900276031
| 31> C 4.270006582880353 -1.0731924047129169 1.4181901672713142
| 32> N 2.9837470052919888 0.18340168525046632 -0.7927683403729076
| 33> C 0.12690567052818086 0.8005886142743258 -2.7344262607751864
| 34> C -0.7172570278460164 0.8544326908268137 -1.446410960990931
| 35> H -3.5524625723300916 0.3056425428878251 -1.0251705505175717
| 36> H -2.7870662009626366 1.2195508775803139 0.2990505020459474
| 37> H -5.018541611227195 0.7092727331137809 0.9498585383234466
| 38> H -3.9369755001559503 -0.22095615877361288 1.9768371451281006
| 39> H -5.2033979383492674 -1.461162599539155 -0.5358264766014498
| 40> H -4.462861235164305 -2.3081051835578674 0.8342528188777456
| 41> H -5.865575432988239 -2.63689018841174 2.9554179338776057
| 42> H -8.561433087245728 -2.280791571365259 3.4145117168218455
| 43> H -9.396734029386936 -0.829174630098222 1.2329630056205936
| 44> H 0.814695579175676 -0.9625118643675487 0.11338824208859768
| 45> H -0.0532888778558613 -2.358196418879276 -0.5249171648110744
| 46> H 0.5621216974947048 -1.8647945576165739 -2.812755714510632
| 47> H 2.037127949192112 -1.8941578973689686 -1.8754279984374542
| 48> H 2.462190070406229 2.349248597686779 -3.2943493885650397
| 49> H 5.83594520769773 1.9433499969857553 1.520882245764592
| 50> H 6.882852059224501 0.896754851858767 3.4845101861111827
| 51> H 6.273178909223695 -1.4162288914358712 4.150336026913037
| 52> H 4.600351961970294 -2.678432140562384 2.81932289892342
| 53> H 3.542043364234118 -1.6521928346776564 0.8526639573369773
| 54> H -0.45385923832492187 0.2901343022389578 -3.5144638156834147
| 55> H 0.3048704736604782 1.8143061934827314 -3.1077294772497313
| 56> H -0.21280356715580628 1.455337767444906 -0.6794658101849976
| 57> H -1.6655657312888374 1.3476342480646575 -1.6744337249492316
| 58> *
| 59>
| 60>                          ****END OF INPUT****

CARTESIAN COORDINATES (ANGSTROEM)
---------------------------------
  O     -2.008476   -1.730440    0.750571
  C     -2.000433   -0.742339    0.017001
  C     -3.165865    0.235995   -0.001283
  C     -4.308180   -0.129012    0.947528
  C     -5.031492   -1.415691    0.547307
  N     -6.333309   -1.512958    1.188360
  C     -6.624373   -2.129568    2.372637
  C     -7.971664   -1.936499    2.577726
  C     -8.401211   -1.192452    1.461293
  N     -7.404785   -0.931222    0.610243
  N     -0.950867   -0.475690   -0.860102
  C      0.245788   -1.326852   -0.750621
  C      1.109752   -1.327527   -2.027586
  N      1.377675    0.039212   -2.533288
  C      2.413260    0.724506   -1.880857
  C      2.871007    1.928084   -2.383976
  C      3.900104    2.566270   -1.711605
  C      4.397735    3.905986   -2.225102
  F      5.703879    4.160857   -1.934259
  F      3.684417    4.952915   -1.715752
  F      4.294274    4.026200   -3.583455
  N      4.446190    2.042992   -0.588625
  C      3.977226    0.853481   -0.178695
  C      4.596509    0.236619    1.012908
  C      5.548849    0.927429    1.788486
  C      6.149274    0.339307    2.907522
  C      5.807957   -0.957458    3.279756
  C      4.868546   -1.665013    2.535821
  C      4.270007   -1.073192    1.418190
  N      2.983747    0.183402   -0.792768
  C      0.126906    0.800589   -2.734426
  C     -0.717257    0.854433   -1.446411
  H     -3.552463    0.305643   -1.025171
  H     -2.787066    1.219551    0.299051
  H     -5.018542    0.709273    0.949859
  H     -3.936976   -0.220956    1.976837
  H     -5.203398   -1.461163   -0.535826
  H     -4.462861   -2.308105    0.834253
  H     -5.865575   -2.636890    2.955418
  H     -8.561433   -2.280792    3.414512
  H     -9.396734   -0.829175    1.232963
  H      0.814696   -0.962512    0.113388
  H     -0.053289   -2.358196   -0.524917
  H      0.562122   -1.864795   -2.812756
  H      2.037128   -1.894158   -1.875428
  H      2.462190    2.349249   -3.294349
  H      5.835945    1.943350    1.520882
  H      6.882852    0.896755    3.484510
  H      6.273179   -1.416229    4.150336
  H      4.600352   -2.678432    2.819323
  H      3.542043   -1.652193    0.852664
  H     -0.453859    0.290134   -3.514464
  H      0.304870    1.814306   -3.107729
  H     -0.212804    1.455338   -0.679466
  H     -1.665566    1.347634   -1.674434

 Total Charge           Charge          ....    0
 Multiplicity           Mult            ....    1
 Number of Electrons    NEL             ....  232
 Basis Dimension        Dim             ....  563

ORBITAL ENERGIES
----------------

  NO   OCC          E(Eh)            E(eV)
   0   2.0000     -26.341373      -716.7852
   1   2.0000     -26.337368      -716.6762
   2   2.0000     -26.333632      -716.5745
   3   2.0000     -20.528592      -558.6114
   4   2.0000     -15.629411      -425.2979
   5   2.0000     -15.602936      -424.5775
   6   2.0000     -15.597517      -424.4300
   7   2.0000     -15.590755      -424.2460
   8   2.0000     -15.586450      -424.1289
   9   2.0000     -15.574789      -423.8115
  10   2.0000     -11.533540      -313.8436
  11   2.0000     -11.366632      -309.3018
  12   2.0000     -11.361188      -309.1536
  13   2.0000     -11.353338      -308.9400
  14   2.0000     -11.344821      -308.7083
  15   2.0000     -11.304072      -307.5994
  16   2.0000     -11.298270      -307.4415
  17   2.0000     -11.285434      -307.0923
  18   2.0000     -11.272546      -306.7416
  19   2.0000     -11.272055      -306.7282
  20   2.0000     -11.272038      -306.7277
  21   2.0000     -11.271023      -306.7001
  22   2.0000     -11.258161      -306.3501
  23   2.0000     -11.256827      -306.3138
  24   2.0000     -11.254550      -306.2519
  25   2.0000     -11.252887      -306.2066
  26   2.0000     -11.252741      -306.2027
  27   2.0000     -11.246869      -306.0429
  28   2.0000     -11.246211      -306.0249
  29   2.0000     -11.245636      -306.0093
  30   2.0000     -11.238615      -305.8183
  31   2.0000     -11.216548      -305.2178
  32   2.0000      -1.703934       -46.3664
  33   2.0000      -1.608354       -43.7655
  34   2.0000      -1.604746       -43.6674
  35   2.0000      -1.373059       -37.3628
  36   2.0000      -1.359287       -36.9881
  37   2.0000      -1.337716       -36.4011
  38   2.0000      -1.281408       -34.8689
  39   2.0000      -1.234926       -33.6041
  40   2.0000      -1.191061       -32.4104
  41   2.0000      -1.155271       -31.4365
  42   2.0000      -1.118070       -30.4242
  43   2.0000      -1.107191       -30.1282
  44   2.0000      -1.063333       -28.9348
  45   2.0000      -1.050702       -28.5910
  46   2.0000      -1.039401       -28.2835
  47   2.0000      -1.026360       -27.9287
  48   2.0000      -1.015192       -27.6248
  49   2.0000      -1.007064       -27.4036
  50   2.0000      -0.979046       -26.6412
  51   2.0000      -0.941766       -25.6267
  52   2.0000      -0.918118       -24.9833
  53   2.0000      -0.900418       -24.5016
  54   2.0000      -0.890996       -24.2452
  55   2.0000      -0.863188       -23.4885
  56   2.0000      -0.838231       -22.8094
  57   2.0000      -0.831690       -22.6314
  58   2.0000      -0.821514       -22.3545
  59   2.0000      -0.820750       -22.3337
  60   2.0000      -0.802947       -21.8493
  61   2.0000      -0.798244       -21.7213
  62   2.0000      -0.788567       -21.4580
  63   2.0000      -0.758263       -20.6334
  64   2.0000      -0.756925       -20.5970
  65   2.0000      -0.743155       -20.2223
  66   2.0000      -0.720993       -19.6192
  67   2.0000      -0.715742       -19.4763
  68   2.0000      -0.714766       -19.4498
  69   2.0000      -0.708746       -19.2860
  70   2.0000      -0.704189       -19.1619
  71   2.0000      -0.692129       -18.8338
  72   2.0000      -0.674596       -18.3567
  73   2.0000      -0.666773       -18.1438
  74   2.0000      -0.665233       -18.1019
  75   2.0000      -0.665102       -18.0983
  76   2.0000      -0.659542       -17.9471
  77   2.0000      -0.653396       -17.7798
  78   2.0000      -0.651579       -17.7304
  79   2.0000      -0.647663       -17.6238
  80   2.0000      -0.642894       -17.4940
  81   2.0000      -0.633494       -17.2382
  82   2.0000      -0.625693       -17.0260
  83   2.0000      -0.621339       -16.9075
  84   2.0000      -0.618425       -16.8282
  85   2.0000      -0.610919       -16.6240
  86   2.0000      -0.602006       -16.3814
  87   2.0000      -0.596947       -16.2437
  88   2.0000      -0.595400       -16.2016
  89   2.0000      -0.592452       -16.1214
  90   2.0000      -0.579263       -15.7626
  91   2.0000      -0.570849       -15.5336
  92   2.0000      -0.567691       -15.4477
  93   2.0000      -0.553638       -15.0652
  94   2.0000      -0.544590       -14.8191
  95   2.0000      -0.540208       -14.6998
  96   2.0000      -0.525347       -14.2954
  97   2.0000      -0.523799       -14.2533
  98   2.0000      -0.518563       -14.1108
  99   2.0000      -0.516893       -14.0654
 100   2.0000      -0.514768       -14.0076
 101   2.0000      -0.504638       -13.7319
 102   2.0000      -0.497974       -13.5506
 103   2.0000      -0.497385       -13.5345
 104   2.0000      -0.491493       -13.3742
 105   2.0000      -0.468962       -12.7611
 106   2.0000      -0.453101       -12.3295
 107   2.0000      -0.437580       -11.9071
 108   2.0000      -0.434535       -11.8243
 109   2.0000      -0.431232       -11.7344
 110   2.0000      -0.395668       -10.7667
 111   2.0000      -0.366175        -9.9641
 112   2.0000      -0.345339        -9.3972
 113   2.0000      -0.344543        -9.3755
 114   2.0000      -0.339635        -9.2419
 115   2.0000      -0.331778        -9.0281
 116   0.0000       0.053028         1.4430
 117   0.0000       0.073997         2.0135
 118   0.0000       0.126709         3.4479
 119   0.0000       0.146453         3.9852
 120   0.0000       0.160436         4.3657

MULLIKEN ATOMIC CHARGES
-----------------------
   0 O :   -0.460030
   1 C :    0.479455
   2 C :   -0.164719
   3 C :    0.005601
   4 C :    0.219987
   5 N :   -0.403438
   6 C :    0.190274
   7 C :   -0.206420
   8 C :    0.117129
   9 N :   -0.209088
  10 N :   -0.690226
  11 C :    0.184812
  12 C :    0.182309
  13 N :   -0.634184
  14 C :    0.440896
  15 C :   -0.116248
  16 C :   -0.050641
  17 C :    1.062619
  18 F :   -0.299943
  19 F :   -0.312784
  20 F :   -0.318556
  21 N :   -0.381243
  22 C :    0.366388
  23 C :   -0.173480
  24 C :    0.028110
  25 C :   -0.050248
  26 C :   -0.007975
  27 C :   -0.047433
  28 C :    0.018157
  29 N :   -0.418747
  30 C :    0.165768
  31 C :    0.174241
  32 H :    0.071958
  33 H :    0.073908
  34 H :    0.053123
  35 H :    0.044389
  36 H :    0.043875
  37 H :    0.072194
  38 H :    0.063461
  39 H :    0.047683
  40 H :    0.046457
  41 H :    0.054452
  42 H :    0.072547
  43 H :    0.043782
  44 H :    0.066845
  45 H :    0.072038
  46 H :    0.067932
  47 H :    0.046655
  48 H :    0.048591
  49 H :    0.044220
  50 H :    0.057234
  51 H :    0.054093
  52 H :    0.062232
  53 H :    0.041210
  54 H :    0.060780
Sum of atomic charges:    0.0000000

LOEWDIN ATOMIC CHARGES
----------------------
   0 O :   -0.310863
   1 C :    0.195864
   2 C :   -0.048688
   3 C :   -0.014039
   4 C :    0.079434
   5 N :    0.028173
   6 C :    0.035683
   7 C :   -0.131000
   8 C :   -0.008507
   9 N :   -0.142414
  10 N :   -0.164114
  11 C :    0.071826
  12 C :    0.073841
  13 N :   -0.153726
  14 C :    0.149775
  15 C :   -0.094424
  16 C :    0.033967
  17 C :    0.366963
  18 F :   -0.122864
  19 F :   -0.134896
  20 F :   -0.136543
  21 N :   -0.172784
  22 C :    0.132006
  23 C :   -0.072536
  24 C :    0.022642
  25 C :   -0.035050
  26 C :   -0.000200
  27 C :   -0.035902
  28 C :    0.016098
  29 N :   -0.184162
  30 C :    0.078762
  31 C :    0.067613
  32 H :    0.032070
  33 H :    0.034324
  34 H :    0.025826
  35 H :    0.023525
  36 H :    0.021926
  37 H :    0.028194
  38 H :    0.029365
  39 H :    0.025532
  40 H :    0.017724
  41 H :    0.012139
  42 H :    0.031554
  43 H :    0.018108
  44 H :    0.031338
  45 H :    0.039480
  46 H :    0.037138
  47 H :    0.029783
  48 H :    0.029901
  49 H :    0.028981
  50 H :    0.031479
  51 H :    0.023433
  52 H :    0.025535
  53 H :    0.008702
  54 H :    0.024010

  Mayer bond orders larger than 0.100000
B(  0-O ,  1-C ) :   1.9049 B(  1-C ,  2-C ) :   0.9537 B(  1-C , 10-N ) :   1.0927
B(  2-C ,  3-C ) :   1.0583 B(  2-C , 32-H ) :   0.9570 B(  2-C , 33-H ) :   0.9601
B(  3-C ,  4-C ) :   1.0184 B(  3-C , 34-H ) :   0.9765 B(  3-C , 35-H ) :   0.9574
B(  4-C ,  5-N ) :   0.8540 B(  4-C , 36-H ) :   0.9776 B(  4-C , 37-H ) :   0.9746
B(  5-N ,  6-C ) :   1.1777 B(  5-N ,  9-N ) :   1.1190 B(  6-C ,  7-C ) :   1.5185
B(  6-C , 38-H ) :   0.9945 B(  7-C ,  8-C ) :   1.3200 B(  7-C , 39-H ) :   1.0014
B(  8-C ,  9-N ) :   1.5764 B(  8-C , 40-H ) :   1.0060 B( 10-N , 11-C ) :   0.8526
B( 10-N , 31-C ) :   0.8882 B( 11-C , 12-C ) :   1.0458 B( 11-C , 41-H ) :   0.9780
B( 11-C , 42-H ) :   0.9742 B( 12-C , 13-N ) :   0.9046 B( 12-C , 43-H ) :   0.9743
B( 12-C , 44-H ) :   0.9764 B( 13-N , 14-C ) :   1.0485 B( 13-N , 30-C ) :   0.9207
B( 14-C , 15-C ) :   1.3399 B( 14-C , 29-N ) :   1.4362 B( 15-C , 16-C ) :   1.4505
B( 15-C , 45-H ) :   0.9714 B( 16-C , 17-C ) :   0.9733 B( 16-C , 21-N ) :   1.4448
B( 17-C , 18-F ) :   1.0045 B( 17-C , 19-F ) :   0.9954 B( 17-C , 20-F ) :   0.9693
B( 21-N , 22-C ) :   1.5208 B( 22-C , 23-C ) :   1.0356 B( 22-C , 29-N ) :   1.4781
B( 23-C , 24-C ) :   1.4071 B( 23-C , 28-C ) :   1.4042 B( 24-C , 25-C ) :   1.4303
B( 24-C , 46-H ) :   0.9934 B( 25-C , 26-C ) :   1.4025 B( 25-C , 47-H ) :   1.0006
B( 26-C , 27-C ) :   1.4021 B( 26-C , 48-H ) :   0.9981 B( 27-C , 28-C ) :   1.4311
B( 27-C , 49-H ) :   1.0009 B( 28-C , 50-H ) :   0.9965 B( 30-C , 31-C ) :   1.0361
B( 30-C , 51-H ) :   0.9714 B( 30-C , 52-H ) :   0.9807 B( 31-C , 53-H ) :   0.9686
B( 31-C , 54-H ) :   0.9695

FINAL SINGLE POINT ENERGY     -1545.190120489782

DIPOLE MOMENT
-------------
                                X             Y             Z
Electronic contribution:     41.11389      29.73024     -16.12362
Nuclear contribution   :    -41.03749     -30.12249      15.94620
                        -----------------------------------------
Total Dipole Moment    :      0.07641      -0.39225      -0.17743
                        -----------------------------------------
Magnitude (a.u.)       :      0.43724
Magnitude (Debye)      :      1.11138

Rotational constants in cm-1:     0.006805     0.001621     0.001417
Rotational constants in MHz :   204.008076    48.600219    42.476222

                             ****ORCA TERMINATED NORMALLY****
TOTAL RUN TIME: 0 days 0 hours 0 minutes 49 seconds 21 msec
