                         Program Version 5.0.3 -  RELEASE  -
|  1> !RHF def2-SVP TightSCF PAL16
|  2> *xyz 0 1
|  3> C 2.7725288255971656 1.3941617972212137 -0.09086180784266285
|  4> N 3.0627847372405452 -0.009459160056633378 -0.3887110705792528
|  5> C 4.222321942624032 -0.4563112161917043 0.3835537618933592
|  6> C 1.8971710037494065 -0.8776230832052185 -0.09927501628233011
|  7> C 0.7319391229914246 -0.6130729870471922 -1.083464752540213
|  8> O 0.8854356537448151 -0.6908500329262474 -2.3034613659009855
|  9> N -0.4686572984510018 -0.2441448969631691 -0.4457687640025948
| 10> C -1.0777035849018464 -1.15184725049426 0.4987945705393335
| 11> C -0.6957909815332185 -2.5132365683252575 0.49595399040783744
| 12> C -1.2420563015025514 -3.439404416676181 1.3894025421855176
| 13> C -2.1988487729251394 -3.031647601863276 2.3046375360304645
| 14> C -2.616573295381338 -1.7042264848065087 2.3078535881664686
| 15> C -2.0751262954574416 -0.7693361529898163 1.4057635131590906
| 16> S -2.7000533160887574 0.8790026102821864 1.515385376698436
| 17> C -2.2203844180047083 1.504028738121431 -0.07309474062625605
| 18> C -2.886281442227336 2.67215693403456 -0.49354010656852443
| 19> C -2.526995221149222 3.3178973852412548 -1.6707998448011028
| 20> C -1.485371183169568 2.8088490627937936 -2.4274806239687674
| 21> C -0.8196720320060125 1.6492770694895615 -2.0125980055207076
| 22> C -1.1814433963139968 0.9493447841740091 -0.8419089688843018
| 23> H 2.483772583827452 1.5438882469446866 0.9557812761749627
| 24> H 3.6490762088224744 2.0190654179121257 -0.29685654396583583
| 25> H 1.971021960358269 1.776485394968726 -0.7296459259973398
| 26> H 4.480556499543789 -1.4900435891556332 0.127971671072342
| 27> H 4.046076342852223 -0.4013667403747898 1.4639909962245579
| 28> H 5.102051246502104 0.15218803237024575 0.14577164484639332
| 29> H 1.579874040475544 -0.747106129896151 0.9417019723284337
| 30> H 2.177025646412513 -1.9292033965627762 -0.237679259174954
| 31> H 0.007509198940554008 -2.9017106993146276 -0.23774178266834362
| 32> H -0.9275647665613388 -4.479911687085998 1.354947736693288
| 33> H -2.632380457736605 -3.743529766731126 3.0022409567985573
| 34> H -3.3807506879890674 -1.3995523064284512 3.0212180536498314
| 35> H -3.687560850701924 3.09587822363007 0.1093924782127043
| 36> H -3.0479392025214875 4.217938612585429 -1.9854078175657217
| 37> H -1.1819012988439916 3.304888970289223 -3.346489166567098
| 38> H -0.016090210214419004 1.3085328870367832 -2.6595761016242743
| 39> *
| 40>
| 41>                          ****END OF INPUT****

CARTESIAN COORDINATES (ANGSTROEM)
---------------------------------
  C      2.772529    1.394162   -0.090862
  N      3.062785   -0.009459   -0.388711
  C      4.222322   -0.456311    0.383554
  C      1.897171   -0.877623   -0.099275
  C      0.731939   -0.613073   -1.083465
  O      0.885436   -0.690850   -2.303461
  N     -0.468657   -0.244145   -0.445769
  C     -1.077704   -1.151847    0.498795
  C     -0.695791   -2.513237    0.495954
  C     -1.242056   -3.439404    1.389403
  C     -2.198849   -3.031648    2.304638
  C     -2.616573   -1.704226    2.307854
  C     -2.075126   -0.769336    1.405764
  S     -2.700053    0.879003    1.515385
  C     -2.220384    1.504029   -0.073095
  C     -2.886281    2.672157   -0.493540
  C     -2.526995    3.317897   -1.670800
  C     -1.485371    2.808849   -2.427481
  C     -0.819672    1.649277   -2.012598
  C     -1.181443    0.949345   -0.841909
  H      2.483773    1.543888    0.955781
  H      3.649076    2.019065   -0.296857
  H      1.971022    1.776485   -0.729646
  H      4.480556   -1.490044    0.127972
  H      4.046076   -0.401367    1.463991
  H      5.102051    0.152188    0.145772
  H      1.579874   -0.747106    0.941702
  H      2.177026   -1.929203   -0.237679
  H      0.007509   -2.901711   -0.237742
  H     -0.927565   -4.479912    1.354948
  H     -2.632380   -3.743530    3.002241
  H     -3.380751   -1.399552    3.021218
  H     -3.687561    3.095878    0.109392
  H     -3.047939    4.217939   -1.985408
  H     -1.181901    3.304889   -3.346489
  H     -0.016090    1.308533   -2.659576

 Total Charge           Charge          ....    0
 Multiplicity           Mult            ....    1
 Number of Electrons    NEL             ....  150
 Basis Dimension        Dim             ....  364

ORBITAL ENERGIES
----------------

  NO   OCC          E(Eh)            E(eV)
   0   2.0000     -91.938177     -2501.7650
   1   2.0000     -20.557278      -559.3920
   2   2.0000     -15.616910      -424.9577
   3   2.0000     -15.558142      -423.3586
   4   2.0000     -11.382455      -309.7323
   5   2.0000     -11.316526      -307.9383
   6   2.0000     -11.309816      -307.7557
   7   2.0000     -11.287528      -307.1492
   8   2.0000     -11.282055      -307.0003
   9   2.0000     -11.276681      -306.8541
  10   2.0000     -11.260821      -306.4225
  11   2.0000     -11.260508      -306.4140
  12   2.0000     -11.256707      -306.3106
  13   2.0000     -11.255650      -306.2818
  14   2.0000     -11.254460      -306.2494
  15   2.0000     -11.253202      -306.2152
  16   2.0000     -11.250969      -306.1544
  17   2.0000     -11.244636      -305.9821
  18   2.0000     -11.242981      -305.9371
  19   2.0000     -11.241186      -305.8882
  20   2.0000      -8.973964      -244.1940
  21   2.0000      -6.662026      -181.2829
  22   2.0000      -6.660415      -181.2391
  23   2.0000      -6.658085      -181.1757
  24   2.0000      -1.386608       -37.7315
  25   2.0000      -1.272736       -34.6329
  26   2.0000      -1.218856       -33.1668
  27   2.0000      -1.161760       -31.6131
  28   2.0000      -1.152289       -31.3554
  29   2.0000      -1.080112       -29.3913
  30   2.0000      -1.033651       -28.1271
  31   2.0000      -1.019959       -27.7545
  32   2.0000      -1.008691       -27.4479
  33   2.0000      -0.978977       -26.6393
  34   2.0000      -0.947266       -25.7764
  35   2.0000      -0.932759       -25.3817
  36   2.0000      -0.878780       -23.9128
  37   2.0000      -0.855775       -23.2868
  38   2.0000      -0.827390       -22.5144
  39   2.0000      -0.823241       -22.4015
  40   2.0000      -0.784533       -21.3482
  41   2.0000      -0.762155       -20.7393
  42   2.0000      -0.738589       -20.0980
  43   2.0000      -0.703595       -19.1458
  44   2.0000      -0.674076       -18.3425
  45   2.0000      -0.669676       -18.2228
  46   2.0000      -0.663266       -18.0484
  47   2.0000      -0.652452       -17.7541
  48   2.0000      -0.649627       -17.6773
  49   2.0000      -0.646661       -17.5965
  50   2.0000      -0.638038       -17.3619
  51   2.0000      -0.617012       -16.7898
  52   2.0000      -0.608714       -16.5639
  53   2.0000      -0.595363       -16.2007
  54   2.0000      -0.587774       -15.9941
  55   2.0000      -0.581198       -15.8152
  56   2.0000      -0.557876       -15.1806
  57   2.0000      -0.555102       -15.1051
  58   2.0000      -0.544216       -14.8089
  59   2.0000      -0.539170       -14.6716
  60   2.0000      -0.530092       -14.4245
  61   2.0000      -0.523646       -14.2491
  62   2.0000      -0.520535       -14.1645
  63   2.0000      -0.514652       -14.0044
  64   2.0000      -0.502931       -13.6854
  65   2.0000      -0.492690       -13.4068
  66   2.0000      -0.474543       -12.9130
  67   2.0000      -0.465908       -12.6780
  68   2.0000      -0.442368       -12.0375
  69   2.0000      -0.432904       -11.7799
  70   2.0000      -0.371309       -10.1038
  71   2.0000      -0.359265        -9.7761
  72   2.0000      -0.355498        -9.6736
  73   2.0000      -0.321265        -8.7421
  74   2.0000      -0.278651        -7.5825
  75   0.0000       0.096729         2.6321
  76   0.0000       0.105982         2.8839
  77   0.0000       0.117902         3.2083
  78   0.0000       0.125895         3.4258
  79   0.0000       0.160777         4.3750

MULLIKEN ATOMIC CHARGES
-----------------------
   0 C :    0.141032
   1 N :   -0.622281
   2 C :    0.149906
   3 C :    0.201503
   4 C :    0.414293
   5 O :   -0.366304
   6 N :   -0.673810
   7 C :    0.269240
   8 C :   -0.106343
   9 C :   -0.014682
  10 C :   -0.037282
  11 C :   -0.005491
  12 C :   -0.146820
  13 S :    0.144131
  14 C :   -0.164902
  15 C :   -0.006026
  16 C :   -0.037789
  17 C :   -0.019072
  18 C :   -0.101897
  19 C :    0.286921
  20 H :    0.008504
  21 H :    0.038890
  22 H :    0.046617
  23 H :    0.034909
  24 H :    0.003818
  25 H :    0.039379
  26 H :    0.046624
  27 H :    0.051945
  28 H :    0.059242
  29 H :    0.049029
  30 H :    0.047759
  31 H :    0.049077
  32 H :    0.045819
  33 H :    0.043455
  34 H :    0.047082
  35 H :    0.083522
Sum of atomic charges:   -0.0000000

LOEWDIN ATOMIC CHARGES
----------------------
   0 C :    0.053563
   1 N :   -0.193381
   2 C :    0.056753
   3 C :    0.048515
   4 C :    0.204952
   5 O :   -0.226669
   6 N :   -0.132054
   7 C :    0.049355
   8 C :   -0.044039
   9 C :   -0.016931
  10 C :   -0.029811
  11 C :   -0.025948
  12 C :   -0.168254
  13 S :    0.321372
  14 C :   -0.172925
  15 C :   -0.031424
  16 C :   -0.033941
  17 C :   -0.016748
  18 C :   -0.036746
  19 C :    0.054444
  20 H :   -0.005165
  21 H :    0.017871
  22 H :    0.014169
  23 H :    0.014175
  24 H :   -0.007244
  25 H :    0.016629
  26 H :    0.005801
  27 H :    0.028208
  28 H :    0.032411
  29 H :    0.032179
  30 H :    0.030823
  31 H :    0.031800
  32 H :    0.029894
  33 H :    0.028784
  34 H :    0.031350
  35 H :    0.038231

  Mayer bond orders larger than 0.100000
B(  0-C ,  1-N ) :   0.9323 B(  0-C , 20-H ) :   0.9752 B(  0-C , 21-H ) :   0.9901
B(  0-C , 22-H ) :   0.9886 B(  1-N ,  2-C ) :   0.9439 B(  1-N ,  3-C ) :   0.9714
B(  2-C , 23-H ) :   0.9915 B(  2-C , 24-H ) :   0.9768 B(  2-C , 25-H ) :   0.9917
B(  3-C ,  4-C ) :   0.9535 B(  3-C , 26-H ) :   0.9789 B(  3-C , 27-H ) :   0.9599
B(  4-C ,  5-O ) :   2.0416 B(  4-C ,  6-N ) :   0.9332 B(  6-N ,  7-C ) :   0.9084
B(  6-N , 19-C ) :   0.8894 B(  7-C ,  8-C ) :   1.4129 B(  7-C , 12-C ) :   1.4556
B(  8-C ,  9-C ) :   1.4319 B(  8-C , 28-H ) :   0.9907 B(  9-C , 10-C ) :   1.4013
B(  9-C , 29-H ) :   0.9971 B( 10-C , 11-C ) :   1.4476 B( 10-C , 30-H ) :   1.0006
B( 11-C , 12-C ) :   1.4138 B( 11-C , 31-H ) :   0.9963 B( 12-C , 13-S ) :   0.9595
B( 13-S , 14-C ) :   0.9586 B( 14-C , 15-C ) :   1.4143 B( 14-C , 19-C ) :   1.4405
B( 15-C , 16-C ) :   1.4464 B( 15-C , 32-H ) :   0.9967 B( 16-C , 17-C ) :   1.3967
B( 16-C , 33-H ) :   1.0010 B( 17-C , 18-C ) :   1.4289 B( 17-C , 34-H ) :   1.0001
B( 18-C , 19-C ) :   1.4284 B( 18-C , 35-H ) :   0.9881

FINAL SINGLE POINT ENERGY     -1195.736741381123

DIPOLE MOMENT
-------------
                                X             Y             Z
Electronic contribution:    -18.51412       0.14854      -0.26332
Nuclear contribution   :     18.63714      -0.29917       1.36193
                        -----------------------------------------
Total Dipole Moment    :      0.12302      -0.15064       1.09862
                        -----------------------------------------
Magnitude (a.u.)       :      1.11570
Magnitude (Debye)      :      2.83588

Rotational constants in cm-1:     0.011697     0.010476     0.006534
Rotational constants in MHz :   350.655680   314.057046   195.897844

                             ****ORCA TERMINATED NORMALLY****
TOTAL RUN TIME: 0 days 0 hours 0 minutes 22 seconds 349 msec
