                         Program Version 5.0.3 -  RELEASE  -
|  1> !RHF def2-SVP TightSCF PAL16
|  2> *xyz 0 1
|  3> O 4.932118587560391 -0.27141848290051557 -0.4224455352754547
|  4> C 3.860060213863122 0.07527554039717825 -0.9197290911121507
|  5> C 2.5295124056985934 -0.4441933756673771 -0.4384974821321816
|  6> S 1.5210667770276602 0.9191720775654972 0.20378493670998565
|  7> O 1.174105473665464 1.7992085010815244 -0.9650095262409226
|  8> C 0.06202587314950073 -0.09786612476250103 0.7105029148058216
|  9> C -0.966688397401411 0.700650215443183 1.5036911999530045
| 10> C -1.469389356779488 1.9354172091559791 1.060315600302908
| 11> C -2.429005489988828 2.6266113920947487 1.8042939496145398
| 12> C -2.9077437930854257 2.092467625392772 2.997162408538862
| 13> C -2.4322020591455784 0.8634933774401253 3.4468131085337226
| 14> C -1.4728639172614284 0.1707028191884467 2.704848317504108
| 15> C -0.5578011523547882 -0.9409829575449744 -0.39506574683034296
| 16> C -0.6826647386511043 -2.331167998625437 -0.21630437319362875
| 17> C -1.2479757310455093 -3.133787928705549 -1.2093758464852464
| 18> C -1.702899660280362 -2.5600738382954686 -2.393861110190317
| 19> C -1.5986960654056106 -1.1843705521742751 -2.583899536323159
| 20> C -1.0361914865364579 -0.3800059861005562 -1.5901299600279124
| 21> N 3.7922598695161076 0.9290333033906281 -2.001742851394527
| 22> O 5.034530991716086 1.5021846162358043 -2.3772583680786243
| 23> H 2.6970028252603773 -1.1706454211464834 0.361675428231866
| 24> H 2.0264256120546884 -0.9360253743405361 -1.274457442930544
| 25> H 0.528190065813579 -0.7887235829352729 1.4272186870010046
| 26> H -1.1230860358369883 2.3777039135217715 0.12712411379412947
| 27> H -2.8047030899314063 3.5824889378924794 1.4461297862896967
| 28> H -3.6566599602389385 2.630953646667305 3.5720810100457507
| 29> H -2.8129281737149454 0.44202170486734754 4.373807282566994
| 30> H -1.1289879147111144 -0.794779865557177 3.072974208667629
| 31> H -0.3459128719199838 -2.806675100720954 0.7035591869855928
| 32> H -1.3390779797419987 -4.205576066894765 -1.0540886863942731
| 33> H -2.145994003623996 -3.1835625935985536 -3.16709167058299
| 34> H -1.9590628992966144 -0.7329763148162834 -3.5049744257405626
| 35> H -0.9753672260384543 0.6925012195447195 -1.7640923312633858
| 36> H 2.974718800121965 1.5372221778434565 -2.106471865541576
| 37> H 5.663884507539474 1.0857232870667122 -1.7477749905219424
| 38> *
| 39>
| 40>                          ****END OF INPUT****

CARTESIAN COORDINATES (ANGSTROEM)
---------------------------------
  O      4.932119   -0.271418   -0.422446
  C      3.860060    0.075276   -0.919729
  C      2.529512   -0.444193   -0.438497
  S      1.521067    0.919172    0.203785
  O      1.174105    1.799209   -0.965010
  C      0.062026   -0.097866    0.710503
  C     -0.966688    0.700650    1.503691
  C     -1.469389    1.935417    1.060316
  C     -2.429005    2.626611    1.804294
  C     -2.907744    2.092468    2.997162
  C     -2.432202    0.863493    3.446813
  C     -1.472864    0.170703    2.704848
  C     -0.557801   -0.940983   -0.395066
  C     -0.682665   -2.331168   -0.216304
  C     -1.247976   -3.133788   -1.209376
  C     -1.702900   -2.560074   -2.393861
  C     -1.598696   -1.184371   -2.583900
  C     -1.036191   -0.380006   -1.590130
  N      3.792260    0.929033   -2.001743
  O      5.034531    1.502185   -2.377258
  H      2.697003   -1.170645    0.361675
  H      2.026426   -0.936025   -1.274457
  H      0.528190   -0.788724    1.427219
  H     -1.123086    2.377704    0.127124
  H     -2.804703    3.582489    1.446130
  H     -3.656660    2.630954    3.572081
  H     -2.812928    0.442022    4.373807
  H     -1.128988   -0.794780    3.072974
  H     -0.345913   -2.806675    0.703559
  H     -1.339078   -4.205576   -1.054089
  H     -2.145994   -3.183563   -3.167092
  H     -1.959063   -0.732976   -3.504974
  H     -0.975367    0.692501   -1.764092
  H      2.974719    1.537222   -2.106472
  H      5.663885    1.085723   -1.747775

 Total Charge           Charge          ....    0
 Multiplicity           Mult            ....    1
 Number of Electrons    NEL             ....  152
 Basis Dimension        Dim             ....  359

ORBITAL ENERGIES
----------------

  NO   OCC          E(Eh)            E(eV)
   0   2.0000     -92.064071     -2505.1907
   1   2.0000     -20.591889      -560.3338
   2   2.0000     -20.546583      -559.1010
   3   2.0000     -20.524296      -558.4945
   4   2.0000     -15.637083      -425.5067
   5   2.0000     -11.384028      -309.7752
   6   2.0000     -11.306230      -307.6582
   7   2.0000     -11.294929      -307.3506
   8   2.0000     -11.272037      -306.7277
   9   2.0000     -11.271913      -306.7243
  10   2.0000     -11.260998      -306.4273
  11   2.0000     -11.258568      -306.3612
  12   2.0000     -11.254974      -306.2634
  13   2.0000     -11.253565      -306.2251
  14   2.0000     -11.253263      -306.2169
  15   2.0000     -11.253039      -306.2108
  16   2.0000     -11.252572      -306.1981
  17   2.0000     -11.251886      -306.1794
  18   2.0000     -11.251332      -306.1643
  19   2.0000     -11.250300      -306.1362
  20   2.0000      -9.088133      -247.3007
  21   2.0000      -6.775963      -184.3833
  22   2.0000      -6.775242      -184.3637
  23   2.0000      -6.772822      -184.2979
  24   2.0000      -1.424555       -38.7641
  25   2.0000      -1.356869       -36.9223
  26   2.0000      -1.353285       -36.8247
  27   2.0000      -1.175537       -31.9880
  28   2.0000      -1.154646       -31.4195
  29   2.0000      -1.147125       -31.2149
  30   2.0000      -1.100648       -29.9501
  31   2.0000      -1.050004       -28.5721
  32   2.0000      -1.020986       -27.7825
  33   2.0000      -1.019294       -27.7364
  34   2.0000      -1.016982       -27.6735
  35   2.0000      -0.962387       -26.1879
  36   2.0000      -0.874100       -23.7855
  37   2.0000      -0.844042       -22.9676
  38   2.0000      -0.832100       -22.6426
  39   2.0000      -0.830286       -22.5932
  40   2.0000      -0.821171       -22.3452
  41   2.0000      -0.789366       -21.4797
  42   2.0000      -0.727971       -19.8091
  43   2.0000      -0.716224       -19.4894
  44   2.0000      -0.707538       -19.2531
  45   2.0000      -0.703961       -19.1558
  46   2.0000      -0.681106       -18.5338
  47   2.0000      -0.658286       -17.9129
  48   2.0000      -0.655906       -17.8481
  49   2.0000      -0.648919       -17.6580
  50   2.0000      -0.640285       -17.4230
  51   2.0000      -0.631149       -17.1744
  52   2.0000      -0.623542       -16.9674
  53   2.0000      -0.609586       -16.5877
  54   2.0000      -0.606661       -16.5081
  55   2.0000      -0.601748       -16.3744
  56   2.0000      -0.599288       -16.3074
  57   2.0000      -0.593554       -16.1514
  58   2.0000      -0.574798       -15.6410
  59   2.0000      -0.565418       -15.3858
  60   2.0000      -0.544046       -14.8043
  61   2.0000      -0.532198       -14.4818
  62   2.0000      -0.525950       -14.3118
  63   2.0000      -0.520039       -14.1510
  64   2.0000      -0.518747       -14.1158
  65   2.0000      -0.509506       -13.8644
  66   2.0000      -0.507432       -13.8079
  67   2.0000      -0.501285       -13.6407
  68   2.0000      -0.464415       -12.6374
  69   2.0000      -0.440526       -11.9873
  70   2.0000      -0.397872       -10.8266
  71   2.0000      -0.390819       -10.6347
  72   2.0000      -0.358401        -9.7526
  73   2.0000      -0.354529        -9.6472
  74   2.0000      -0.349651        -9.5145
  75   2.0000      -0.338277        -9.2050
  76   0.0000       0.090919         2.4740
  77   0.0000       0.103911         2.8276
  78   0.0000       0.123004         3.3471
  79   0.0000       0.126896         3.4530
  80   0.0000       0.137429         3.7396

MULLIKEN ATOMIC CHARGES
-----------------------
   0 O :   -0.453874
   1 C :    0.416492
   2 C :   -0.127320
   3 S :    0.636346
   4 O :   -0.738090
   5 C :   -0.069323
   6 C :   -0.083954
   7 C :   -0.023470
   8 C :   -0.033710
   9 C :   -0.030439
  10 C :   -0.035346
  11 C :   -0.018794
  12 C :   -0.120254
  13 C :   -0.024880
  14 C :   -0.035306
  15 C :   -0.029895
  16 C :   -0.035162
  17 C :    0.003674
  18 N :   -0.163548
  19 O :   -0.309353
  20 H :    0.105839
  21 H :    0.136982
  22 H :    0.077726
  23 H :    0.075056
  24 H :    0.048684
  25 H :    0.047121
  26 H :    0.045897
  27 H :    0.032140
  28 H :    0.032425
  29 H :    0.046154
  30 H :    0.048512
  31 H :    0.049471
  32 H :    0.075083
  33 H :    0.217933
  34 H :    0.237185
Sum of atomic charges:    0.0000000

LOEWDIN ATOMIC CHARGES
----------------------
   0 O :   -0.308036
   1 C :    0.149509
   2 C :   -0.149984
   3 S :    0.902119
   4 O :   -0.693649
   5 C :   -0.110210
   6 C :   -0.046327
   7 C :   -0.018702
   8 C :   -0.016565
   9 C :   -0.018732
  10 C :   -0.020706
  11 C :   -0.020411
  12 C :   -0.052040
  13 C :   -0.026403
  14 C :   -0.023734
  15 C :   -0.017749
  16 C :   -0.018331
  17 C :   -0.008686
  18 N :    0.029559
  19 O :   -0.126058
  20 H :    0.043939
  21 H :    0.049175
  22 H :    0.028033
  23 H :    0.033159
  24 H :    0.031216
  25 H :    0.029137
  26 H :    0.029795
  27 H :    0.024087
  28 H :    0.023347
  29 H :    0.029765
  30 H :    0.029655
  31 H :    0.031551
  32 H :    0.034963
  33 H :    0.084664
  34 H :    0.092649

  Mayer bond orders larger than 0.100000
B(  0-O ,  1-C ) :   1.9225 B(  1-C ,  2-C ) :   0.9652 B(  1-C , 18-N ) :   1.1515
B(  2-C ,  3-S ) :   0.9081 B(  2-C , 20-H ) :   0.9519 B(  2-C , 21-H ) :   0.9395
B(  3-S ,  4-O ) :   1.3416 B(  3-S ,  5-C ) :   0.9387 B(  5-C ,  6-C ) :   1.0021
B(  5-C , 12-C ) :   0.9531 B(  5-C , 22-H ) :   0.9580 B(  6-C ,  7-C ) :   1.4106
B(  6-C , 11-C ) :   1.4254 B(  7-C ,  8-C ) :   1.4307 B(  7-C , 23-H ) :   0.9923
B(  8-C ,  9-C ) :   1.4135 B(  8-C , 24-H ) :   0.9997 B(  9-C , 10-C ) :   1.4123
B(  9-C , 25-H ) :   0.9991 B( 10-C , 11-C ) :   1.4367 B( 10-C , 26-H ) :   0.9984
B( 11-C , 27-H ) :   0.9983 B( 12-C , 13-C ) :   1.4195 B( 12-C , 17-C ) :   1.4066
B( 13-C , 14-C ) :   1.4342 B( 13-C , 28-H ) :   0.9991 B( 14-C , 15-C ) :   1.4156
B( 14-C , 29-H ) :   0.9990 B( 15-C , 16-C ) :   1.4062 B( 15-C , 30-H ) :   0.9989
B( 16-C , 17-C ) :   1.4323 B( 16-C , 31-H ) :   1.0006 B( 17-C , 32-H ) :   0.9937
B( 18-N , 19-O ) :   0.9448 B( 18-N , 33-H ) :   0.9007 B( 19-O , 34-H ) :   0.9334

FINAL SINGLE POINT ENERGY     -1252.432749892408

DIPOLE MOMENT
-------------
                                X             Y             Z
Electronic contribution:      8.55956       3.74614      -0.71261
Nuclear contribution   :    -10.36490      -4.89992       1.70121
                        -----------------------------------------
Total Dipole Moment    :     -1.80534      -1.15378       0.98860
                        -----------------------------------------
Magnitude (a.u.)       :      2.35962
Magnitude (Debye)      :      5.99767

Rotational constants in cm-1:     0.013523     0.007031     0.005494
Rotational constants in MHz :   405.409115   210.786744   164.708539

                             ****ORCA TERMINATED NORMALLY****
TOTAL RUN TIME: 0 days 0 hours 0 minutes 18 seconds 726 msec
