                         Program Version 5.0.3 -  RELEASE  -
|  1> !RHF def2-SVP TightSCF PAL16
|  2> *xyz 0 1
|  3> C -3.8820394753038454 1.5688516547554718 -0.06449934896007212
|  4> C -2.734533374578092 0.6161818185969528 -0.2258829376498311
|  5> C -2.2944585513691713 0.2456821969071499 -1.501267961083282
|  6> C -1.2476558332896914 -0.6680045227231197 -1.6517437265224297
|  7> C -0.6274831321261618 -1.2239879755248901 -0.530017168756676
|  8> S 0.7146188245117848 -2.375517312299378 -0.7642107054402852
|  9> C 2.0454685642007293 -1.5407665938787591 0.19236178653360392
| 10> C 2.4889725784427954 -0.1863354302490922 -0.3953882348064345
| 11> S 3.2980227048678077 -0.41969163408436644 -2.033135412834185
| 12> C 3.484386766983705 0.5443392157072579 0.5197508304610227
| 13> S 2.708405540705627 1.1462843091646366 2.0588281590665827
| 14> C -1.086165174445623 -0.8797406983609403 0.7439971103286763
| 15> C -2.1328838550991946 0.03414839118633068 0.8952376237655856
| 16> H -4.827039263572152 1.0172730430547308 -0.04908040369741231
| 17> H -3.7887043974025256 2.138196648779004 0.8662812293238545
| 18> H -3.907286941434043 2.292338698201283 -0.8861644991096397
| 19> H -2.7657218163866624 0.6634718925035331 -2.3883640166261326
| 20> H -0.9230378743274014 -0.9394697279356368 -2.6535969759486657
| 21> H 2.8956550990109187 -2.232110721220392 0.23546396768993239
| 22> H 1.6926227312460416 -1.432239119546296 1.2216411434061611
| 23> H 1.6242732893503455 0.46373971890362337 -0.5690266688250939
| 24> H 2.298521931861892 -1.128872735841298 -2.583517311206962
| 25> H 4.317531856537509 -0.11121525564352784 0.7967676185841661
| 26> H 3.9018996476255543 1.426344318198822 0.02136916947361626
| 27> H 1.8741601256636908 2.0241115218996 1.4799537123836848
| 28> H -0.647933643290885 -1.3261641308569312 1.6328950706076075
| 29> H -2.479596328382499 0.28315243030625636 1.8960268148290005
| 30> *
| 31>
| 32>                          ****END OF INPUT****

CARTESIAN COORDINATES (ANGSTROEM)
---------------------------------
  C     -3.882039    1.568852   -0.064499
  C     -2.734533    0.616182   -0.225883
  C     -2.294459    0.245682   -1.501268
  C     -1.247656   -0.668005   -1.651744
  C     -0.627483   -1.223988   -0.530017
  S      0.714619   -2.375517   -0.764211
  C      2.045469   -1.540767    0.192362
  C      2.488973   -0.186335   -0.395388
  S      3.298023   -0.419692   -2.033135
  C      3.484387    0.544339    0.519751
  S      2.708406    1.146284    2.058828
  C     -1.086165   -0.879741    0.743997
  C     -2.132884    0.034148    0.895238
  H     -4.827039    1.017273   -0.049080
  H     -3.788704    2.138197    0.866281
  H     -3.907287    2.292339   -0.886164
  H     -2.765722    0.663472   -2.388364
  H     -0.923038   -0.939470   -2.653597
  H      2.895655   -2.232111    0.235464
  H      1.692623   -1.432239    1.221641
  H      1.624273    0.463740   -0.569027
  H      2.298522   -1.128873   -2.583517
  H      4.317532   -0.111215    0.796768
  H      3.901900    1.426344    0.021369
  H      1.874160    2.024112    1.479954
  H     -0.647934   -1.326164    1.632895
  H     -2.479596    0.283152    1.896027

 Total Charge           Charge          ....    0
 Multiplicity           Mult            ....    1
 Number of Electrons    NEL             ....  122
 Basis Dimension        Dim             ....  264

ORBITAL ENERGIES
----------------

  NO   OCC          E(Eh)            E(eV)
   0   2.0000     -91.920976     -2501.2969
   1   2.0000     -91.919663     -2501.2612
   2   2.0000     -91.907811     -2500.9387
   3   2.0000     -11.280820      -306.9667
   4   2.0000     -11.279201      -306.9227
   5   2.0000     -11.271510      -306.7134
   6   2.0000     -11.268529      -306.6323
   7   2.0000     -11.253371      -306.2198
   8   2.0000     -11.251876      -306.1791
   9   2.0000     -11.251374      -306.1654
  10   2.0000     -11.245193      -305.9973
  11   2.0000     -11.244497      -305.9783
  12   2.0000     -11.238411      -305.8127
  13   2.0000      -8.956219      -243.7111
  14   2.0000      -8.954797      -243.6724
  15   2.0000      -8.943175      -243.3562
  16   2.0000      -6.644214      -180.7982
  17   2.0000      -6.642869      -180.7616
  18   2.0000      -6.642789      -180.7595
  19   2.0000      -6.641221      -180.7168
  20   2.0000      -6.640649      -180.7013
  21   2.0000      -6.639209      -180.6621
  22   2.0000      -6.631176      -180.4435
  23   2.0000      -6.629883      -180.4083
  24   2.0000      -6.627653      -180.3476
  25   2.0000      -1.161157       -31.5967
  26   2.0000      -1.117785       -30.4165
  27   2.0000      -1.068920       -29.0868
  28   2.0000      -1.021354       -27.7925
  29   2.0000      -1.014193       -27.5976
  30   2.0000      -0.983695       -26.7677
  31   2.0000      -0.934090       -25.4179
  32   2.0000      -0.891530       -24.2598
  33   2.0000      -0.856535       -23.3075
  34   2.0000      -0.834687       -22.7130
  35   2.0000      -0.795290       -21.6409
  36   2.0000      -0.774385       -21.0721
  37   2.0000      -0.676488       -18.4082
  38   2.0000      -0.658475       -17.9180
  39   2.0000      -0.641467       -17.4552
  40   2.0000      -0.630400       -17.1541
  41   2.0000      -0.624257       -16.9869
  42   2.0000      -0.604038       -16.4367
  43   2.0000      -0.596314       -16.2265
  44   2.0000      -0.589282       -16.0352
  45   2.0000      -0.562242       -15.2994
  46   2.0000      -0.552477       -15.0337
  47   2.0000      -0.547043       -14.8858
  48   2.0000      -0.537525       -14.6268
  49   2.0000      -0.517880       -14.0922
  50   2.0000      -0.511883       -13.9290
  51   2.0000      -0.503673       -13.7056
  52   2.0000      -0.486641       -13.2422
  53   2.0000      -0.463999       -12.6260
  54   2.0000      -0.441645       -12.0178
  55   2.0000      -0.433450       -11.7948
  56   2.0000      -0.376013       -10.2318
  57   2.0000      -0.361965        -9.8496
  58   2.0000      -0.355041        -9.6612
  59   2.0000      -0.347689        -9.4611
  60   2.0000      -0.316619        -8.6156
  61   0.0000       0.111826         3.0429
  62   0.0000       0.117912         3.2086
  63   0.0000       0.152507         4.1499
  64   0.0000       0.174436         4.7466
  65   0.0000       0.178797         4.8653

MULLIKEN ATOMIC CHARGES
-----------------------
   0 C :    0.070572
   1 C :   -0.180944
   2 C :   -0.037273
   3 C :    0.017731
   4 C :   -0.180237
   5 S :   -0.029034
   6 C :   -0.043462
   7 C :   -0.200889
   8 S :   -0.104079
   9 C :   -0.081389
  10 S :   -0.101585
  11 C :    0.015712
  12 C :   -0.037894
  13 H :    0.059907
  14 H :    0.038663
  15 H :    0.039283
  16 H :    0.034438
  17 H :    0.042391
  18 H :    0.079646
  19 H :    0.084226
  20 H :    0.095591
  21 H :    0.089548
  22 H :    0.088081
  23 H :    0.095318
  24 H :    0.064413
  25 H :    0.046896
  26 H :    0.034369
Sum of atomic charges:   -0.0000000

LOEWDIN ATOMIC CHARGES
----------------------
   0 C :   -0.020231
   1 C :   -0.025523
   2 C :   -0.032817
   3 C :   -0.023455
   4 C :   -0.180739
   5 S :    0.245703
   6 C :   -0.120551
   7 C :   -0.144262
   8 S :    0.118827
   9 C :   -0.121601
  10 S :    0.140824
  11 C :   -0.018405
  12 C :   -0.031719
  13 H :    0.031690
  14 H :    0.024095
  15 H :    0.024478
  16 H :    0.026568
  17 H :    0.027425
  18 H :    0.022552
  19 H :    0.012057
  20 H :    0.014670
  21 H :   -0.037465
  22 H :    0.025650
  23 H :    0.021718
  24 H :   -0.035360
  25 H :    0.029154
  26 H :    0.026717

  Mayer bond orders larger than 0.100000
B(  0-C ,  1-C ) :   0.9970 B(  0-C , 13-H ) :   0.9737 B(  0-C , 14-H ) :   0.9862
B(  0-C , 15-H ) :   0.9861 B(  1-C ,  2-C ) :   1.4184 B(  1-C , 12-C ) :   1.4068
B(  2-C ,  3-C ) :   1.4355 B(  2-C , 16-H ) :   1.0040 B(  3-C ,  4-C ) :   1.4150
B(  3-C , 17-H ) :   1.0010 B(  4-C ,  5-S ) :   0.9563 B(  4-C , 11-C ) :   1.3968
B(  5-S ,  6-C ) :   0.9994 B(  6-C ,  7-C ) :   0.9009 B(  6-C , 18-H ) :   0.9666
B(  6-C , 19-H ) :   0.9642 B(  7-C ,  8-S ) :   1.0245 B(  7-C ,  9-C ) :   0.9359
B(  7-C , 20-H ) :   0.9568 B(  8-S , 21-H ) :   0.9495 B(  9-C , 10-S ) :   1.0139
B(  9-C , 22-H ) :   0.9664 B(  9-C , 23-H ) :   0.9729 B( 10-S , 24-H ) :   0.9596
B( 11-C , 12-C ) :   1.4521 B( 11-C , 25-H ) :   0.9982 B( 12-C , 26-H ) :   1.0039

FINAL SINGLE POINT ENERGY     -1578.758844450104

DIPOLE MOMENT
-------------
                                X             Y             Z
Electronic contribution:      8.19183      -6.18914      -1.70647
Nuclear contribution   :     -8.97245       6.82002       1.87153
                        -----------------------------------------
Total Dipole Moment    :     -0.78063       0.63088       0.16506
                        -----------------------------------------
Magnitude (a.u.)       :      1.01717
Magnitude (Debye)      :      2.58544

Rotational constants in cm-1:     0.023224     0.010935     0.009037
Rotational constants in MHz :   696.241336   327.818168   270.919572

                             ****ORCA TERMINATED NORMALLY****
TOTAL RUN TIME: 0 days 0 hours 0 minutes 8 seconds 952 msec
