                         Program Version 5.0.3 -  RELEASE  -
|  1> !RHF def2-SVP TightSCF PAL16
|  2> *xyz 0 1
|  3> N -4.8822661038704025 0.8724414025558238 -0.48658642559776877
|  4> C -3.956224352652041 -0.10219623449430171 -0.6217893458041139
|  5> O -4.055322814696012 -1.0209842390039205 -1.418098355069878
|  6> O -2.9456035337589026 0.10259120527468177 0.24901610089747397
|  7> C -1.920355126585046 -0.9070901818985916 0.2029209329605524
|  8> C -0.8607399937337815 -0.5749518952761906 1.2611649334618726
|  9> O -1.4320297650134763 -0.7267510444832033 2.5688966145341094
| 10> C 0.3595597907837019 -1.495858801884187 1.1371278372289835
| 11> O 1.0177545899336247 -1.3588609076738722 -0.1203380391420505
| 12> C 1.9148101938485964 -0.34408893494298487 -0.29327574681174506
| 13> C 2.323677286223966 0.5766469727081615 0.6722141953549143
| 14> C 3.2550911778691796 1.5698774853309658 0.34615903677590354
| 15> C 3.7775557613115076 1.641313184294156 -0.9434944462605573
| 16> Cl 4.920997055907866 2.864112677960036 -1.3370549017779287
| 17> C 3.3777602829082767 0.7270418107136463 -1.9125989288431333
| 18> C 2.4485405623456966 -0.2626553169108374 -1.5839106192068957
| 19> H -4.806701905594623 1.5122457496613264 0.2885314544598867
| 20> H -5.750881162787536 0.7790805933929225 -0.9903671296888937
| 21> H -1.4779251164783611 -0.9114524101922766 -0.7994945040299479
| 22> H -2.374621564587958 -1.8815814188140974 0.41914053889511194
| 23> H -0.5768423276091358 0.47752509330716614 1.1507241601968372
| 24> H -0.860367586946336 -0.25281568164955087 3.1965718275842296
| 25> H 1.0506551185445188 -1.3829229640024268 1.9811626591089895
| 26> H 0.0219808818466583 -2.5380809962457302 1.2047191320762318
| 27> H 1.945403893932034 0.5564685231008185 1.6878610966766456
| 28> H 3.5690276744890177 2.2831761511909714 1.1039859114501809
| 29> H 3.7808458837700436 0.7754407300994128 -2.920333284769368
| 30> H 2.136221200594081 -0.9776705521214724 -2.3422235055487097
| 31> *
| 32>
| 33>                          ****END OF INPUT****

CARTESIAN COORDINATES (ANGSTROEM)
---------------------------------
  N     -4.882266    0.872441   -0.486586
  C     -3.956224   -0.102196   -0.621789
  O     -4.055323   -1.020984   -1.418098
  O     -2.945604    0.102591    0.249016
  C     -1.920355   -0.907090    0.202921
  C     -0.860740   -0.574952    1.261165
  O     -1.432030   -0.726751    2.568897
  C      0.359560   -1.495859    1.137128
  O      1.017755   -1.358861   -0.120338
  C      1.914810   -0.344089   -0.293276
  C      2.323677    0.576647    0.672214
  C      3.255091    1.569877    0.346159
  C      3.777556    1.641313   -0.943494
  Cl     4.920997    2.864113   -1.337055
  C      3.377760    0.727042   -1.912599
  C      2.448541   -0.262655   -1.583911
  H     -4.806702    1.512246    0.288531
  H     -5.750881    0.779081   -0.990367
  H     -1.477925   -0.911452   -0.799495
  H     -2.374622   -1.881581    0.419141
  H     -0.576842    0.477525    1.150724
  H     -0.860368   -0.252816    3.196572
  H      1.050655   -1.382923    1.981163
  H      0.021981   -2.538081    1.204719
  H      1.945404    0.556469    1.687861
  H      3.569028    2.283176    1.103986
  H      3.780846    0.775441   -2.920333
  H      2.136221   -0.977671   -2.342224

 Total Charge           Charge          ....    0
 Multiplicity           Mult            ....    1
 Number of Electrons    NEL             ....  128
 Basis Dimension        Dim             ....  288

ORBITAL ENERGIES
----------------

  NO   OCC          E(Eh)            E(eV)
   0   2.0000    -104.794869     -2851.6134
   1   2.0000     -20.597192      -560.4781
   2   2.0000     -20.597181      -560.4778
   3   2.0000     -20.568514      -559.6977
   4   2.0000     -20.515223      -558.2476
   5   2.0000     -15.584413      -424.0735
   6   2.0000     -11.404784      -310.3399
   7   2.0000     -11.323059      -308.1161
   8   2.0000     -11.310194      -307.7660
   9   2.0000     -11.305052      -307.6261
  10   2.0000     -11.299172      -307.4661
  11   2.0000     -11.298988      -307.4611
  12   2.0000     -11.266565      -306.5788
  13   2.0000     -11.262954      -306.4806
  14   2.0000     -11.259744      -306.3932
  15   2.0000     -11.251435      -306.1671
  16   2.0000     -10.558780      -287.3190
  17   2.0000      -8.033937      -218.6145
  18   2.0000      -8.030338      -218.5166
  19   2.0000      -8.030238      -218.5139
  20   2.0000      -1.447518       -39.3890
  21   2.0000      -1.412708       -38.4417
  22   2.0000      -1.356575       -36.9143
  23   2.0000      -1.332035       -36.2465
  24   2.0000      -1.201382       -32.6913
  25   2.0000      -1.188538       -32.3417
  26   2.0000      -1.118670       -30.4406
  27   2.0000      -1.052261       -28.6335
  28   2.0000      -1.029617       -28.0173
  29   2.0000      -0.992583       -27.0096
  30   2.0000      -0.944858       -25.7109
  31   2.0000      -0.860658       -23.4197
  32   2.0000      -0.844560       -22.9816
  33   2.0000      -0.808507       -22.0006
  34   2.0000      -0.796974       -21.6868
  35   2.0000      -0.749500       -20.3949
  36   2.0000      -0.739359       -20.1190
  37   2.0000      -0.734638       -19.9905
  38   2.0000      -0.703397       -19.1404
  39   2.0000      -0.695042       -18.9131
  40   2.0000      -0.668227       -18.1834
  41   2.0000      -0.664822       -18.0907
  42   2.0000      -0.660246       -17.9662
  43   2.0000      -0.636211       -17.3122
  44   2.0000      -0.629843       -17.1389
  45   2.0000      -0.615769       -16.7559
  46   2.0000      -0.604408       -16.4468
  47   2.0000      -0.599422       -16.3111
  48   2.0000      -0.575157       -15.6508
  49   2.0000      -0.568643       -15.4736
  50   2.0000      -0.550209       -14.9719
  51   2.0000      -0.544464       -14.8156
  52   2.0000      -0.538625       -14.6567
  53   2.0000      -0.533474       -14.5166
  54   2.0000      -0.509997       -13.8777
  55   2.0000      -0.490719       -13.3531
  56   2.0000      -0.474105       -12.9011
  57   2.0000      -0.467766       -12.7286
  58   2.0000      -0.453217       -12.3326
  59   2.0000      -0.452548       -12.3145
  60   2.0000      -0.445113       -12.1121
  61   2.0000      -0.421479       -11.4690
  62   2.0000      -0.362566        -9.8659
  63   2.0000      -0.321516        -8.7489
  64   0.0000       0.105953         2.8831
  65   0.0000       0.127862         3.4793
  66   0.0000       0.144384         3.9289
  67   0.0000       0.183044         4.9809
  68   0.0000       0.185487         5.0474

MULLIKEN ATOMIC CHARGES
-----------------------
   0 N :   -0.302054
   1 C :    0.604253
   2 O :   -0.465453
   3 O :   -0.554481
   4 C :    0.320085
   5 C :    0.129405
   6 O :   -0.459371
   7 C :    0.272531
   8 O :   -0.559605
   9 C :    0.327440
  10 C :   -0.138196
  11 C :    0.021870
  12 C :    0.007498
  13 Cl:   -0.140170
  14 C :    0.015795
  15 C :   -0.072475
  16 H :    0.169218
  17 H :    0.173060
  18 H :    0.067438
  19 H :    0.053827
  20 H :    0.042278
  21 H :    0.198088
  22 H :    0.036829
  23 H :    0.053005
  24 H :    0.035264
  25 H :    0.050568
  26 H :    0.054249
  27 H :    0.059104
Sum of atomic charges:   -0.0000000

LOEWDIN ATOMIC CHARGES
----------------------
   0 N :   -0.048927
   1 C :    0.217115
   2 O :   -0.330852
   3 O :   -0.198705
   4 C :    0.148753
   5 C :    0.085789
   6 O :   -0.190831
   7 C :    0.122584
   8 O :   -0.187741
   9 C :    0.094632
  10 C :   -0.078260
  11 C :   -0.016379
  12 C :   -0.141259
  13 Cl:    0.090184
  14 C :   -0.014929
  15 C :   -0.038291
  16 H :    0.084996
  17 H :    0.089264
  18 H :    0.025522
  19 H :    0.023192
  20 H :    0.008206
  21 H :    0.086143
  22 H :    0.008162
  23 H :    0.026228
  24 H :    0.024888
  25 H :    0.034914
  26 H :    0.036505
  27 H :    0.039097

  Mayer bond orders larger than 0.100000
B(  0-N ,  1-C ) :   1.1947 B(  0-N , 16-H ) :   0.9488 B(  0-N , 17-H ) :   0.9531
B(  1-C ,  2-O ) :   1.9199 B(  1-C ,  3-O ) :   1.0673 B(  3-O ,  4-C ) :   0.8206
B(  4-C ,  5-C ) :   0.9984 B(  4-C , 18-H ) :   0.9827 B(  4-C , 19-H ) :   0.9713
B(  5-C ,  6-O ) :   0.9101 B(  5-C ,  7-C ) :   1.0054 B(  5-C , 20-H ) :   0.9733
B(  6-O , 21-H ) :   0.9715 B(  7-C ,  8-O ) :   0.8411 B(  7-C , 22-H ) :   0.9848
B(  7-C , 23-H ) :   0.9669 B(  8-O ,  9-C ) :   0.9794 B(  9-C , 10-C ) :   1.3581
B(  9-C , 15-C ) :   1.3913 B( 10-C , 11-C ) :   1.3989 B( 10-C , 24-H ) :   1.0033
B( 11-C , 12-C ) :   1.4349 B( 11-C , 25-H ) :   0.9987 B( 12-C , 13-Cl) :   0.9414
B( 12-C , 14-C ) :   1.3881 B( 14-C , 15-C ) :   1.4418 B( 14-C , 26-H ) :   1.0016
B( 15-C , 27-H ) :   1.0019

FINAL SINGLE POINT ENERGY     -1198.370257042726

DIPOLE MOMENT
-------------
                                X             Y             Z
Electronic contribution:     14.47476       9.04119      -6.33295
Nuclear contribution   :    -14.46190      -8.35735       7.60000
                        -----------------------------------------
Total Dipole Moment    :      0.01287       0.68384       1.26705
                        -----------------------------------------
Magnitude (a.u.)       :      1.43987
Magnitude (Debye)      :      3.65986

Rotational constants in cm-1:     0.027911     0.005632     0.005293
Rotational constants in MHz :   836.745692   168.833229   158.686467

                             ****ORCA TERMINATED NORMALLY****
TOTAL RUN TIME: 0 days 0 hours 0 minutes 9 seconds 387 msec
