                         Program Version 5.0.3 -  RELEASE  -
|  1> !RHF def2-SVP TightSCF PAL16
|  2> *xyz 0 1
|  3> C 4.514269241985791 -0.3173535067929264 2.5206864063111647
|  4> C 4.080729980755602 0.2071591006368151 1.1510464947746668
|  5> C 5.304516363715146 0.45009091398688406 0.27573450627994145
|  6> O 3.3509558355686555 1.4549138986453094 1.2899190062112693
|  7> C 2.0277542890119244 0.9800077504173672 1.2742464115969452
|  8> C 0.7909395980848277 1.8054125530304068 1.0725598244991945
|  9> C -0.25623478178363507 0.7292610544019902 0.599319390031976
| 10> C -1.1014016115995442 1.3211047290814109 -0.5531783954741284
| 11> C -2.0288790566961117 2.4685386184319884 -0.07024995848463841
| 12> C -3.517081432291845 2.13190209574677 -0.08408870793660578
| 13> F -4.147351751311385 2.979438928816267 0.7772843140410738
| 14> C -3.6840466700490033 0.6974052116300081 0.32570620238687026
| 15> C -4.142669590690775 0.37358789740682546 1.5483065502864803
| 16> C -4.11704280346542 -1.0185679889389407 2.0369274242031796
| 17> O -4.563142515067819 -1.3214823745024997 3.135083317792595
| 18> C -3.483258007128743 -2.023324292993524 1.1617189475720577
| 19> C -3.041885508107368 -1.6962557951673942 -0.06109461165913878
| 20> C -3.1657320053955 -0.32107797296423657 -0.7003786281377298
| 21> C -4.275342015652498 -0.5064618014958927 -1.7726620743972814
| 22> C -1.8513963331018803 0.26511566659882985 -1.387284336106612
| 23> F -2.297709707775306 0.978055324253734 -2.4967197108018615
| 24> C -0.7988697765405943 -0.7051037882943042 -1.9600598302456178
| 25> O -1.401581718855082 -1.6878092748056637 -2.804418950377145
| 26> C 0.0523538469313171 -1.425558413406317 -0.9146214012213135
| 27> C 0.5794092131385068 -0.5969590017309838 0.28334533976870657
| 28> C 0.5091824523816831 -1.5689920876165364 1.5016271596984179
| 29> C 2.033829129973205 -0.03816590537240504 0.1500141350796367
| 30> C 2.3163429178033943 0.5163616720037032 -1.2755122914915797
| 31> O 1.9567145372379704 1.6380689510807804 -1.6407399000584182
| 32> C 3.0575388863488904 -0.39200641683375 -2.273350247396626
| 33> O 3.234261169904969 -1.7507135710325796 -1.9357827298046903
| 34> O 3.1910380903406868 -0.7939059037075236 0.5425947736186146
| 35> H 3.650024559377075 -0.5519606242559721 3.1509513446413036
| 36> H 5.091610174593418 -1.2428095809919648 2.4214956977983286
| 37> H 5.113724143703533 0.42564705662622154 3.0568434944203178
| 38> H 5.0349415067427605 0.9735516070784793 -0.6454321979550366
| 39> H 5.788689694267797 -0.49118178742633245 -0.002963735757007635
| 40> H 6.031757166468365 1.0908408701813597 0.7863587223837323
| 41> H 1.9026913701803903 0.5220619623494703 2.2628854192192582
| 42> H 0.9514713490532826 2.6174165085108956 0.35763589420776765
| 43> H 0.4715681480130039 2.27820350519773 2.0081035843353843
| 44> H -0.9268509411657572 0.5131948992437831 1.4414176591655337
| 45> H -0.4110249906658009 1.8124021500817673 -1.2498173271663988
| 46> H -1.7428621946921925 2.8116094365967235 0.9317263205034249
| 47> H -1.8803375842711487 3.3444426262109106 -0.7159920794011955
| 48> H -3.953730733660384 2.3107869763638655 -1.071055994312519
| 49> H -4.48912639339011 1.115411632841531 2.2605037449641285
| 50> H -3.4276270301758256 -3.0335588426010256 1.5499366194601136
| 51> H -2.6630652975834295 -2.5039495588440275 -0.6859563752215384
| 52> H -4.528353306663907 0.4320683403807774 -2.278207227649838
| 53> H -5.206958784735381 -0.8820671639959675 -1.3289273390069567
| 54> H -3.974979408783083 -1.221577289899341 -2.5464421083169637
| 55> H -0.1267040624859285 -0.13583438738252548 -2.613528162580148
| 56> H -1.7901071053314406 -1.2069117528131408 -3.5602415074385467
| 57> H 0.8791246741810816 -1.9305836676264403 -1.4223554715537656
| 58> H -0.5226638845547111 -2.2831280844007398 -0.5489157194763107
| 59> H 0.7804595322993053 -1.1088908956237835 2.4540566840405122
| 60> H -0.5079148467169285 -1.9508921147059302 1.6397586351844589
| 61> H 1.1691605375728342 -2.430563027766661 1.3485014710950816
| 62> H 2.491668145297332 -0.367578676425496 -3.210299378968193
| 63> H 4.042334485543092 0.04228665470893786 -2.4654804111349327
| 64> H 3.6268708099118383 -1.7811230421259494 -1.04053868603872
| 65> *
| 66>
| 67>                          ****END OF INPUT****

CARTESIAN COORDINATES (ANGSTROEM)
---------------------------------
  C      4.514269   -0.317354    2.520686
  C      4.080730    0.207159    1.151046
  C      5.304516    0.450091    0.275735
  O      3.350956    1.454914    1.289919
  C      2.027754    0.980008    1.274246
  C      0.790940    1.805413    1.072560
  C     -0.256235    0.729261    0.599319
  C     -1.101402    1.321105   -0.553178
  C     -2.028879    2.468539   -0.070250
  C     -3.517081    2.131902   -0.084089
  F     -4.147352    2.979439    0.777284
  C     -3.684047    0.697405    0.325706
  C     -4.142670    0.373588    1.548307
  C     -4.117043   -1.018568    2.036927
  O     -4.563143   -1.321482    3.135083
  C     -3.483258   -2.023324    1.161719
  C     -3.041886   -1.696256   -0.061095
  C     -3.165732   -0.321078   -0.700379
  C     -4.275342   -0.506462   -1.772662
  C     -1.851396    0.265116   -1.387284
  F     -2.297710    0.978055   -2.496720
  C     -0.798870   -0.705104   -1.960060
  O     -1.401582   -1.687809   -2.804419
  C      0.052354   -1.425558   -0.914621
  C      0.579409   -0.596959    0.283345
  C      0.509182   -1.568992    1.501627
  C      2.033829   -0.038166    0.150014
  C      2.316343    0.516362   -1.275512
  O      1.956715    1.638069   -1.640740
  C      3.057539   -0.392006   -2.273350
  O      3.234261   -1.750714   -1.935783
  O      3.191038   -0.793906    0.542595
  H      3.650025   -0.551961    3.150951
  H      5.091610   -1.242810    2.421496
  H      5.113724    0.425647    3.056843
  H      5.034942    0.973552   -0.645432
  H      5.788690   -0.491182   -0.002964
  H      6.031757    1.090841    0.786359
  H      1.902691    0.522062    2.262885
  H      0.951471    2.617417    0.357636
  H      0.471568    2.278204    2.008104
  H     -0.926851    0.513195    1.441418
  H     -0.411025    1.812402   -1.249817
  H     -1.742862    2.811609    0.931726
  H     -1.880338    3.344443   -0.715992
  H     -3.953731    2.310787   -1.071056
  H     -4.489126    1.115412    2.260504
  H     -3.427627   -3.033559    1.549937
  H     -2.663065   -2.503950   -0.685956
  H     -4.528353    0.432068   -2.278207
  H     -5.206959   -0.882067   -1.328927
  H     -3.974979   -1.221577   -2.546442
  H     -0.126704   -0.135834   -2.613528
  H     -1.790107   -1.206912   -3.560242
  H      0.879125   -1.930584   -1.422355
  H     -0.522664   -2.283128   -0.548916
  H      0.780460   -1.108891    2.454057
  H     -0.507915   -1.950892    1.639759
  H      1.169161   -2.430563    1.348501
  H      2.491668   -0.367579   -3.210299
  H      4.042334    0.042287   -2.465480
  H      3.626871   -1.781123   -1.040539

 Total Charge           Charge          ....    0
 Multiplicity           Mult            ....    1
 Number of Electrons    NEL             ....  240
 Basis Dimension        Dim             ....  598

ORBITAL ENERGIES
----------------

  NO   OCC          E(Eh)            E(eV)
   0   2.0000     -26.295841      -715.5462
   1   2.0000     -26.281580      -715.1582
   2   2.0000     -20.601664      -560.5998
   3   2.0000     -20.582516      -560.0787
   4   2.0000     -20.574968      -559.8734
   5   2.0000     -20.572479      -559.8056
   6   2.0000     -20.562111      -559.5235
   7   2.0000     -20.531185      -558.6819
   8   2.0000     -11.372743      -309.4681
   9   2.0000     -11.366456      -309.2970
  10   2.0000     -11.347309      -308.7760
  11   2.0000     -11.329608      -308.2943
  12   2.0000     -11.328932      -308.2759
  13   2.0000     -11.323849      -308.1376
  14   2.0000     -11.308915      -307.7312
  15   2.0000     -11.308793      -307.7279
  16   2.0000     -11.301151      -307.5199
  17   2.0000     -11.294479      -307.3384
  18   2.0000     -11.283822      -307.0484
  19   2.0000     -11.278424      -306.9015
  20   2.0000     -11.275325      -306.8172
  21   2.0000     -11.266340      -306.5727
  22   2.0000     -11.257590      -306.3346
  23   2.0000     -11.249462      -306.1134
  24   2.0000     -11.248827      -306.0961
  25   2.0000     -11.248499      -306.0872
  26   2.0000     -11.248026      -306.0744
  27   2.0000     -11.245189      -305.9971
  28   2.0000     -11.244984      -305.9916
  29   2.0000     -11.244626      -305.9818
  30   2.0000     -11.243856      -305.9609
  31   2.0000     -11.241880      -305.9071
  32   2.0000      -1.597814       -43.4787
  33   2.0000      -1.586466       -43.1699
  34   2.0000      -1.454170       -39.5700
  35   2.0000      -1.391230       -37.8573
  36   2.0000      -1.361868       -37.0583
  37   2.0000      -1.359837       -37.0030
  38   2.0000      -1.357962       -36.9520
  39   2.0000      -1.343225       -36.5510
  40   2.0000      -1.183240       -32.1976
  41   2.0000      -1.162648       -31.6373
  42   2.0000      -1.103985       -30.0410
  43   2.0000      -1.082800       -29.4645
  44   2.0000      -1.056988       -28.7621
  45   2.0000      -1.052787       -28.6478
  46   2.0000      -1.032907       -28.1068
  47   2.0000      -1.009329       -27.4652
  48   2.0000      -0.997449       -27.1420
  49   2.0000      -0.973753       -26.4972
  50   2.0000      -0.960753       -26.1434
  51   2.0000      -0.949096       -25.8262
  52   2.0000      -0.932221       -25.3670
  53   2.0000      -0.910405       -24.7734
  54   2.0000      -0.880943       -23.9717
  55   2.0000      -0.851630       -23.1740
  56   2.0000      -0.845372       -23.0037
  57   2.0000      -0.839357       -22.8401
  58   2.0000      -0.815676       -22.1957
  59   2.0000      -0.809225       -22.0201
  60   2.0000      -0.794714       -21.6253
  61   2.0000      -0.781540       -21.2668
  62   2.0000      -0.769579       -20.9413
  63   2.0000      -0.745453       -20.2848
  64   2.0000      -0.734640       -19.9906
  65   2.0000      -0.726034       -19.7564
  66   2.0000      -0.717551       -19.5256
  67   2.0000      -0.710383       -19.3305
  68   2.0000      -0.710141       -19.3239
  69   2.0000      -0.699035       -19.0217
  70   2.0000      -0.694861       -18.9081
  71   2.0000      -0.678397       -18.4601
  72   2.0000      -0.677005       -18.4222
  73   2.0000      -0.670069       -18.2335
  74   2.0000      -0.664568       -18.0838
  75   2.0000      -0.661566       -18.0021
  76   2.0000      -0.653922       -17.7941
  77   2.0000      -0.648485       -17.6462
  78   2.0000      -0.641990       -17.4694
  79   2.0000      -0.636783       -17.3278
  80   2.0000      -0.631066       -17.1722
  81   2.0000      -0.613975       -16.7071
  82   2.0000      -0.609133       -16.5753
  83   2.0000      -0.606641       -16.5075
  84   2.0000      -0.602129       -16.3848
  85   2.0000      -0.596226       -16.2241
  86   2.0000      -0.587777       -15.9942
  87   2.0000      -0.581798       -15.8315
  88   2.0000      -0.577534       -15.7155
  89   2.0000      -0.575135       -15.6502
  90   2.0000      -0.574427       -15.6309
  91   2.0000      -0.571420       -15.5491
  92   2.0000      -0.564063       -15.3489
  93   2.0000      -0.559832       -15.2338
  94   2.0000      -0.554204       -15.0807
  95   2.0000      -0.549878       -14.9629
  96   2.0000      -0.546521       -14.8716
  97   2.0000      -0.544494       -14.8164
  98   2.0000      -0.540910       -14.7189
  99   2.0000      -0.539206       -14.6726
 100   2.0000      -0.534868       -14.5545
 101   2.0000      -0.531188       -14.4544
 102   2.0000      -0.530223       -14.4281
 103   2.0000      -0.522981       -14.2310
 104   2.0000      -0.521185       -14.1822
 105   2.0000      -0.513881       -13.9834
 106   2.0000      -0.512060       -13.9339
 107   2.0000      -0.499382       -13.5889
 108   2.0000      -0.490131       -13.3371
 109   2.0000      -0.475233       -12.9318
 110   2.0000      -0.470453       -12.8017
 111   2.0000      -0.469516       -12.7762
 112   2.0000      -0.463351       -12.6084
 113   2.0000      -0.458377       -12.4731
 114   2.0000      -0.440024       -11.9737
 115   2.0000      -0.435781       -11.8582
 116   2.0000      -0.413518       -11.2524
 117   2.0000      -0.412494       -11.2245
 118   2.0000      -0.384239       -10.4557
 119   2.0000      -0.372888       -10.1468
 120   0.0000       0.072558         1.9744
 121   0.0000       0.106743         2.9046
 122   0.0000       0.135646         3.6911
 123   0.0000       0.153787         4.1847
 124   0.0000       0.159707         4.3458

MULLIKEN ATOMIC CHARGES
-----------------------
   0 C :    0.077994
   1 C :    0.241019
   2 C :    0.044450
   3 O :   -0.568249
   4 C :    0.259814
   5 C :    0.188443
   6 C :   -0.127648
   7 C :   -0.136157
   8 C :    0.036570
   9 C :    0.525450
  10 F :   -0.373374
  11 C :   -0.180686
  12 C :   -0.090146
  13 C :    0.311927
  14 O :   -0.387872
  15 C :   -0.095365
  16 C :    0.048288
  17 C :   -0.348398
  18 C :    0.116904
  19 C :    0.250846
  20 F :   -0.409111
  21 C :    0.273328
  22 O :   -0.461449
  23 C :    0.095269
  24 C :   -0.490992
  25 C :    0.110700
  26 C :    0.104923
  27 C :    0.218245
  28 O :   -0.391659
  29 C :    0.342305
  30 O :   -0.477764
  31 O :   -0.647841
  32 H :    0.030652
  33 H :    0.041195
  34 H :    0.049440
  35 H :    0.044168
  36 H :    0.043973
  37 H :    0.054521
  38 H :    0.046038
  39 H :    0.069993
  40 H :    0.039212
  41 H :    0.053175
  42 H :    0.088665
  43 H :    0.056506
  44 H :    0.051738
  45 H :    0.045243
  46 H :    0.065001
  47 H :    0.055708
  48 H :    0.094425
  49 H :    0.053545
  50 H :    0.049715
  51 H :    0.045845
  52 H :    0.044327
  53 H :    0.213619
  54 H :    0.077594
  55 H :    0.039877
  56 H :    0.025224
  57 H :    0.053792
  58 H :    0.051366
  59 H :    0.064894
  60 H :    0.056299
  61 H :    0.234481
Sum of atomic charges:   -0.0000000

LOEWDIN ATOMIC CHARGES
----------------------
   0 C :   -0.028891
   1 C :    0.192160
   2 C :   -0.033886
   3 O :   -0.232622
   4 C :    0.096419
   5 C :   -0.002650
   6 C :    0.005635
   7 C :   -0.030777
   8 C :   -0.008086
   9 C :    0.164526
  10 F :   -0.169576
  11 C :    0.001235
  12 C :   -0.064191
  13 C :    0.132658
  14 O :   -0.248260
  15 C :   -0.067903
  16 C :    0.037952
  17 C :   -0.045295
  18 C :   -0.001593
  19 C :    0.125623
  20 F :   -0.187571
  21 C :    0.100355
  22 O :   -0.187571
  23 C :   -0.018818
  24 C :   -0.035120
  25 C :   -0.010862
  26 C :    0.040696
  27 C :    0.161270
  28 O :   -0.233573
  29 C :    0.099036
  30 O :   -0.191099
  31 O :   -0.249464
  32 H :    0.021624
  33 H :    0.026971
  34 H :    0.029424
  35 H :    0.022724
  36 H :    0.025602
  37 H :    0.034273
  38 H :    0.012294
  39 H :    0.029024
  40 H :    0.018726
  41 H :    0.020417
  42 H :    0.032538
  43 H :    0.029864
  44 H :    0.028557
  45 H :    0.017831
  46 H :    0.041988
  47 H :    0.037326
  48 H :    0.036817
  49 H :    0.020249
  50 H :    0.025966
  51 H :    0.021736
  52 H :    0.014066
  53 H :    0.091646
  54 H :    0.033255
  55 H :    0.026396
  56 H :    0.011039
  57 H :    0.021030
  58 H :    0.024853
  59 H :    0.034899
  60 H :    0.024025
  61 H :    0.075082

  Mayer bond orders larger than 0.100000
B(  0-C ,  1-C ) :   1.0435 B(  0-C , 32-H ) :   0.9706 B(  0-C , 33-H ) :   0.9756
B(  0-C , 34-H ) :   0.9746 B(  1-C ,  2-C ) :   1.0446 B(  1-C ,  3-O ) :   0.8849
B(  1-C , 31-O ) :   0.7918 B(  2-C , 35-H ) :   0.9706 B(  2-C , 36-H ) :   0.9738
B(  2-C , 37-H ) :   0.9740 B(  3-O ,  4-C ) :   0.8716 B(  4-C ,  5-C ) :   1.0417
B(  4-C , 26-C ) :   1.0426 B(  4-C , 38-H ) :   0.9846 B(  5-C ,  6-C ) :   1.0097
B(  5-C , 39-H ) :   0.9515 B(  5-C , 40-H ) :   0.9616 B(  6-C ,  7-C ) :   0.9331
B(  6-C , 24-C ) :   0.9098 B(  6-C , 41-H ) :   0.9444 B(  7-C ,  8-C ) :   0.9808
B(  7-C , 19-C ) :   1.0346 B(  7-C , 42-H ) :   0.9460 B(  8-C ,  9-C ) :   1.0594
B(  8-C , 43-H ) :   0.9655 B(  8-C , 44-H ) :   0.9629 B(  9-C , 10-F ) :   0.8491
B(  9-C , 11-C ) :   0.9941 B(  9-C , 45-H ) :   0.9663 B( 11-C , 12-C ) :   1.8497
B( 11-C , 17-C ) :   0.9386 B( 12-C , 13-C ) :   1.0050 B( 12-C , 46-H ) :   1.0093
B( 13-C , 14-O ) :   1.9501 B( 13-C , 15-C ) :   1.0050 B( 15-C , 16-C ) :   1.8428
B( 15-C , 47-H ) :   1.0039 B( 16-C , 17-C ) :   0.9749 B( 16-C , 48-H ) :   0.9767
B( 17-C , 18-C ) :   0.9840 B( 17-C , 19-C ) :   0.8766 B( 18-C , 49-H ) :   0.9749
B( 18-C , 50-H ) :   0.9817 B( 18-C , 51-H ) :   0.9819 B( 19-C , 20-F ) :   0.7607
B( 19-C , 21-C ) :   1.0049 B( 21-C , 22-O ) :   0.9322 B( 21-C , 23-C ) :   1.0243
B( 21-C , 52-H ) :   0.9697 B( 22-O , 53-H ) :   0.9557 B( 23-C , 24-C ) :   0.9573
B( 23-C , 54-H ) :   0.9511 B( 23-C , 55-H ) :   0.9675 B( 24-C , 25-C ) :   1.0106
B( 24-C , 26-C ) :   0.9056 B( 25-C , 56-H ) :   0.9851 B( 25-C , 57-H ) :   0.9802
B( 25-C , 58-H ) :   0.9804 B( 26-C , 27-C ) :   0.8492 B( 26-C , 31-O ) :   0.8146
B( 27-C , 28-O ) :   1.9877 B( 27-C , 29-C ) :   0.9536 B( 29-C , 30-O ) :   0.9332
B( 29-C , 59-H ) :   0.9682 B( 29-C , 60-H ) :   0.9691 B( 30-O , 61-H ) :   0.9355

FINAL SINGLE POINT ENERGY     -1573.063328697983

DIPOLE MOMENT
-------------
                                X             Y             Z
Electronic contribution:    -22.74343       9.11374      -3.82173
Nuclear contribution   :     24.51807      -9.21775       3.04989
                        -----------------------------------------
Total Dipole Moment    :      1.77464      -0.10401      -0.77183
                        -----------------------------------------
Magnitude (a.u.)       :      1.93802
Magnitude (Debye)      :      4.92604

Rotational constants in cm-1:     0.008471     0.003358     0.003185
Rotational constants in MHz :   253.952564   100.657316    95.497914

                             ****ORCA TERMINATED NORMALLY****
TOTAL RUN TIME: 0 days 0 hours 1 minutes 36 seconds 112 msec
