                         Program Version 5.0.3 -  RELEASE  -
|  1> !RHF def2-SVP TightSCF PAL16
|  2> *xyz 0 1
|  3> C -4.973570885209008 0.11721360581565861 0.7862506692388035
|  4> C -3.488723016128132 0.3017465741094021 0.3987946084684063
|  5> C -3.389071373095219 0.23621859446023036 -1.1357301768563928
|  6> C -3.0595972634109607 1.6915115732957164 0.9013994905532043
|  7> N -2.741653401285613 -0.7653761669775963 1.1039988649472952
|  8> C -1.4503611192551054 -1.2126647332556402 0.531475523972475
|  9> C -0.2673861232322363 -0.2344441709925101 0.7600205053942765
| 10> O -0.21028940927174966 0.1122336800265929 2.1466651241972285
| 11> C 1.0955147050041527 -0.7523365130338258 0.3457332308245581
| 12> C 1.5298843523069066 -2.057470612174668 0.6451583109220892
| 13> C 2.7926924663738046 -2.4953575984087277 0.24532491506076606
| 14> C 3.6380153459789053 -1.6184292379963423 -0.430323202166314
| 15> O 4.8340781658193 -2.1115887502022304 -0.8790771366954261
| 16> C 3.2668967450534314 -0.2887465048636625 -0.6844830683945589
| 17> N 4.231465722296878 0.578215910794168 -1.248286325222444
| 18> C 4.028823887955091 1.8259331463824482 -1.7662169278875237
| 19> N 5.210839101585898 2.464638845348036 -2.0236964408010287
| 20> O 2.9660859828926385 2.370484402100829 -2.0225313538180223
| 21> C 1.9889762211768378 0.1292513760482459 -0.30575724886246025
| 22> H -5.600794832299516 0.9003993986064385 0.34520709166055724
| 23> H -5.112963095967438 0.15953150242939082 1.872722686867955
| 24> H -5.361148514984899 -0.8472021845594901 0.4409522355266727
| 25> H -4.045448627772764 0.9813579531652663 -1.6020402908258986
| 26> H -2.3738336260261588 0.4447258605581278 -1.4880358104149247
| 27> H -3.6887145053998656 -0.749916573400147 -1.5138159238219253
| 28> H -2.0391014669724616 1.956942286106136 0.6048653876621413
| 29> H -3.7123203476506847 2.4749753031507424 0.5034190915311035
| 30> H -3.1100007844424917 1.748143565223306 1.9963412464108812
| 31> H -3.3397212698147962 -1.5943522001264911 1.1471974172963753
| 32> H -1.5393144658372881 -1.498952372619233 -0.5259287544542227
| 33> H -1.234006683973589 -2.1447603090974217 1.0682385698437995
| 34> H -0.466599871570717 0.6792659685023824 0.18958741420631883
| 35> H -1.1474681174411492 0.1228180322555826 2.4304730965682917
| 36> H 0.8969341400629646 -2.7488228484583326 1.2045578322310262
| 37> H 3.11096662341672 -3.516379833378383 0.4562840421274394
| 38> H 4.8998365671429625 -1.8195997507468271 -1.8088812907471064
| 39> H 5.177089343845819 0.22654075859140713 -1.2986009180137053
| 40> H 5.937790169290761 2.3475921106779385 -1.327668494154667
| 41> H 5.068139820202472 3.4260658959010724 -2.3117108300301528
| 42> H 1.6780594406351457 1.1605940167404074 -0.47066044424662745
| 43> *
| 44>
| 45>                          ****END OF INPUT****

CARTESIAN COORDINATES (ANGSTROEM)
---------------------------------
  C     -4.973571    0.117214    0.786251
  C     -3.488723    0.301747    0.398795
  C     -3.389071    0.236219   -1.135730
  C     -3.059597    1.691512    0.901399
  N     -2.741653   -0.765376    1.103999
  C     -1.450361   -1.212665    0.531476
  C     -0.267386   -0.234444    0.760021
  O     -0.210289    0.112234    2.146665
  C      1.095515   -0.752337    0.345733
  C      1.529884   -2.057471    0.645158
  C      2.792692   -2.495358    0.245325
  C      3.638015   -1.618429   -0.430323
  O      4.834078   -2.111589   -0.879077
  C      3.266897   -0.288747   -0.684483
  N      4.231466    0.578216   -1.248286
  C      4.028824    1.825933   -1.766217
  N      5.210839    2.464639   -2.023696
  O      2.966086    2.370484   -2.022531
  C      1.988976    0.129251   -0.305757
  H     -5.600795    0.900399    0.345207
  H     -5.112963    0.159532    1.872723
  H     -5.361149   -0.847202    0.440952
  H     -4.045449    0.981358   -1.602040
  H     -2.373834    0.444726   -1.488036
  H     -3.688715   -0.749917   -1.513816
  H     -2.039101    1.956942    0.604865
  H     -3.712320    2.474975    0.503419
  H     -3.110001    1.748144    1.996341
  H     -3.339721   -1.594352    1.147197
  H     -1.539314   -1.498952   -0.525929
  H     -1.234007   -2.144760    1.068239
  H     -0.466600    0.679266    0.189587
  H     -1.147468    0.122818    2.430473
  H      0.896934   -2.748823    1.204558
  H      3.110967   -3.516380    0.456284
  H      4.899837   -1.819600   -1.808881
  H      5.177089    0.226541   -1.298601
  H      5.937790    2.347592   -1.327668
  H      5.068140    3.426066   -2.311711
  H      1.678059    1.160594   -0.470660

 Total Charge           Charge          ....    0
 Multiplicity           Mult            ....    1
 Number of Electrons    NEL             ....  144
 Basis Dimension        Dim             ....  371

ORBITAL ENERGIES
----------------

  NO   OCC          E(Eh)            E(eV)
   0   2.0000     -20.588456      -560.2404
   1   2.0000     -20.528642      -558.6128
   2   2.0000     -20.514149      -558.2184
   3   2.0000     -15.610572      -424.7853
   4   2.0000     -15.585534      -424.1039
   5   2.0000     -15.551438      -423.1761
   6   2.0000     -11.390038      -309.9387
   7   2.0000     -11.299686      -307.4801
   8   2.0000     -11.290191      -307.2217
   9   2.0000     -11.279610      -306.9338
  10   2.0000     -11.267097      -306.5933
  11   2.0000     -11.256824      -306.3137
  12   2.0000     -11.239148      -305.8328
  13   2.0000     -11.237737      -305.7944
  14   2.0000     -11.237165      -305.7788
  15   2.0000     -11.236605      -305.7636
  16   2.0000     -11.224560      -305.4358
  17   2.0000     -11.222884      -305.3902
  18   2.0000     -11.217413      -305.2413
  19   2.0000      -1.395231       -37.9662
  20   2.0000      -1.385567       -37.7032
  21   2.0000      -1.322349       -35.9829
  22   2.0000      -1.256611       -34.1941
  23   2.0000      -1.199845       -32.6494
  24   2.0000      -1.194498       -32.5039
  25   2.0000      -1.129524       -30.7359
  26   2.0000      -1.051825       -28.6216
  27   2.0000      -1.018031       -27.7020
  28   2.0000      -1.005521       -27.3616
  29   2.0000      -0.944020       -25.6881
  30   2.0000      -0.926215       -25.2036
  31   2.0000      -0.920771       -25.0555
  32   2.0000      -0.874678       -23.8012
  33   2.0000      -0.850598       -23.1460
  34   2.0000      -0.807609       -21.9762
  35   2.0000      -0.782899       -21.3038
  36   2.0000      -0.762576       -20.7508
  37   2.0000      -0.743525       -20.2323
  38   2.0000      -0.735779       -20.0216
  39   2.0000      -0.704398       -19.1676
  40   2.0000      -0.687676       -18.7126
  41   2.0000      -0.668920       -18.2022
  42   2.0000      -0.656811       -17.8727
  43   2.0000      -0.645935       -17.5768
  44   2.0000      -0.642753       -17.4902
  45   2.0000      -0.633442       -17.2368
  46   2.0000      -0.623524       -16.9670
  47   2.0000      -0.616421       -16.7737
  48   2.0000      -0.609655       -16.5895
  49   2.0000      -0.600752       -16.3473
  50   2.0000      -0.598735       -16.2924
  51   2.0000      -0.589543       -16.0423
  52   2.0000      -0.577582       -15.7168
  53   2.0000      -0.562729       -15.3126
  54   2.0000      -0.545319       -14.8389
  55   2.0000      -0.542145       -14.7525
  56   2.0000      -0.530033       -14.4229
  57   2.0000      -0.519960       -14.1488
  58   2.0000      -0.515572       -14.0294
  59   2.0000      -0.513778       -13.9806
  60   2.0000      -0.499048       -13.5798
  61   2.0000      -0.493372       -13.4253
  62   2.0000      -0.480848       -13.0845
  63   2.0000      -0.476917       -12.9776
  64   2.0000      -0.458729       -12.4827
  65   2.0000      -0.452732       -12.3195
  66   2.0000      -0.443948       -12.0804
  67   2.0000      -0.427454       -11.6316
  68   2.0000      -0.425726       -11.5846
  69   2.0000      -0.379980       -10.3398
  70   2.0000      -0.328686        -8.9440
  71   2.0000      -0.306802        -8.3485
  72   0.0000       0.127356         3.4655
  73   0.0000       0.134389         3.6569
  74   0.0000       0.156973         4.2714
  75   0.0000       0.162942         4.4339
  76   0.0000       0.181233         4.9316

MULLIKEN ATOMIC CHARGES
-----------------------
   0 C :    0.033392
   1 C :   -0.251896
   2 C :    0.041235
   3 C :    0.056582
   4 N :   -0.480533
   5 C :    0.171945
   6 C :    0.280784
   7 O :   -0.459624
   8 C :   -0.117094
   9 C :   -0.000514
  10 C :   -0.062779
  11 C :    0.218049
  12 O :   -0.411792
  13 C :    0.129494
  14 N :   -0.420475
  15 C :    0.544915
  16 N :   -0.315565
  17 O :   -0.455044
  18 C :   -0.044035
  19 H :    0.032532
  20 H :    0.039980
  21 H :    0.022088
  22 H :    0.032520
  23 H :    0.037553
  24 H :    0.026331
  25 H :    0.034825
  26 H :    0.025213
  27 H :    0.035027
  28 H :    0.136343
  29 H :    0.027846
  30 H :    0.023122
  31 H :    0.015880
  32 H :    0.207928
  33 H :    0.041256
  34 H :    0.045231
  35 H :    0.213749
  36 H :    0.156116
  37 H :    0.150396
  38 H :    0.165389
  39 H :    0.073630
Sum of atomic charges:   -0.0000000

LOEWDIN ATOMIC CHARGES
----------------------
   0 C :   -0.025696
   1 C :    0.004354
   2 C :   -0.033912
   3 C :   -0.028564
   4 N :   -0.157918
   5 C :    0.048395
   6 C :    0.111957
   7 O :   -0.201537
   8 C :   -0.036082
   9 C :   -0.016621
  10 C :   -0.039095
  11 C :    0.049424
  12 O :   -0.135514
  13 C :    0.016311
  14 N :   -0.066855
  15 C :    0.192411
  16 N :   -0.077633
  17 O :   -0.328068
  18 C :   -0.015442
  19 H :    0.018317
  20 H :    0.018216
  21 H :    0.009676
  22 H :    0.020089
  23 H :    0.015521
  24 H :    0.013761
  25 H :    0.016187
  26 H :    0.016374
  27 H :    0.017846
  28 H :    0.059964
  29 H :    0.003724
  30 H :    0.012594
  31 H :   -0.001226
  32 H :    0.076038
  33 H :    0.026682
  34 H :    0.036041
  35 H :    0.098238
  36 H :    0.079498
  37 H :    0.075555
  38 H :    0.086693
  39 H :    0.040296

  Mayer bond orders larger than 0.100000
B(  0-C ,  1-C ) :   1.0154 B(  0-C , 19-H ) :   0.9858 B(  0-C , 20-H ) :   0.9842
B(  0-C , 21-H ) :   0.9819 B(  1-C ,  2-C ) :   0.9927 B(  1-C ,  3-C ) :   0.9997
B(  1-C ,  4-N ) :   0.9187 B(  2-C , 22-H ) :   0.9788 B(  2-C , 23-H ) :   0.9802
B(  2-C , 24-H ) :   0.9788 B(  3-C , 25-H ) :   0.9838 B(  3-C , 26-H ) :   0.9815
B(  3-C , 27-H ) :   0.9796 B(  4-N ,  5-C ) :   0.9889 B(  4-N , 28-H ) :   0.9530
B(  5-C ,  6-C ) :   1.0285 B(  5-C , 29-H ) :   0.9671 B(  5-C , 30-H ) :   0.9646
B(  6-C ,  7-O ) :   0.9770 B(  6-C ,  8-C ) :   0.9804 B(  6-C , 31-H ) :   0.9561
B(  7-O , 32-H ) :   0.9529 B(  8-C ,  9-C ) :   1.3960 B(  8-C , 18-C ) :   1.4320
B(  9-C , 10-C ) :   1.4190 B(  9-C , 33-H ) :   0.9989 B( 10-C , 11-C ) :   1.4247
B( 10-C , 34-H ) :   1.0070 B( 11-C , 12-O ) :   0.9986 B( 11-C , 13-C ) :   1.3477
B( 12-O , 35-H ) :   0.9608 B( 13-C , 14-N ) :   0.9755 B( 13-C , 18-C ) :   1.4000
B( 14-N , 15-C ) :   1.0805 B( 14-N , 36-H ) :   0.9274 B( 15-C , 16-N ) :   1.1301
B( 15-C , 17-O ) :   1.9393 B( 16-N , 37-H ) :   0.9555 B( 16-N , 38-H ) :   0.9568
B( 18-C , 39-H ) :   0.9985

FINAL SINGLE POINT ENERGY      -891.789550732919

DIPOLE MOMENT
-------------
                                X             Y             Z
Electronic contribution:     31.40594      -2.87163      -3.39067
Nuclear contribution   :    -31.10716       2.56596       2.78018
                        -----------------------------------------
Total Dipole Moment    :      0.29878      -0.30567      -0.61049
                        -----------------------------------------
Magnitude (a.u.)       :      0.74525
Magnitude (Debye)      :      1.89428

Rotational constants in cm-1:     0.020845     0.005524     0.004719
Rotational constants in MHz :   624.921240   165.609313   141.464360

                             ****ORCA TERMINATED NORMALLY****
TOTAL RUN TIME: 0 days 0 hours 0 minutes 18 seconds 897 msec
