                         Program Version 5.0.3 -  RELEASE  -
|  1> !RHF def2-SVP TightSCF PAL16
|  2> *xyz 0 1
|  3> C 2.3850626413664737 -1.5338850853328678 -1.9629679557259863
|  4> C 1.3913845896533719 -1.3057638288861082 -0.8635296048748907
|  5> O 1.4725480316737123 -1.7957756516762517 0.25557865131442326
|  6> O 0.3764653881368227 -0.48232498239514476 -1.3382351922536817
|  7> C -0.5486794389251819 -0.14385519391801785 -0.34633616195811673
|  8> C -1.745515169369699 -0.8674779167522295 -0.3286637625531127
|  9> C -2.7225197708126525 -0.5614187909237768 0.6166148869290794
| 10> C -2.508569271800574 0.4700013573956259 1.5304103502516595
| 11> C -1.3183335100060114 1.2041718651569333 1.4976766624944937
| 12> C -0.3241660073778344 0.9098424783878757 0.5514652718700469
| 13> C 0.9307597046264232 1.7047536799938185 0.492174479613375
| 14> O 1.8270737547139018 1.6030703688704908 -0.32504452984159915
| 15> O 1.0103034132380306 2.6183593401979017 1.4790105176737838
| 16> H 3.2168259313273153 -2.13214848505239 -1.580188599514357
| 17> H 2.7806543943047615 -0.5763660388036079 -2.311072158939697
| 18> H 1.9102025304866623 -2.0763176330581845 -2.7841002907696284
| 19> H -1.9116008101409097 -1.6702374989235997 -1.0415721806549738
| 20> H -3.6503279944678244 -1.12781874937746 0.6428790212810604
| 21> H -3.2702333196281885 0.7068626590362207 2.2699124251989464
| 22> H -1.1798417894992992 2.0084432302284427 2.2167670731635205
| 23> H 1.8785067025004634 3.047884875831912 1.3292210972960834
| 24> *
| 25>
| 26>                          ****END OF INPUT****

CARTESIAN COORDINATES (ANGSTROEM)
---------------------------------
  C      2.385063   -1.533885   -1.962968
  C      1.391385   -1.305764   -0.863530
  O      1.472548   -1.795776    0.255579
  O      0.376465   -0.482325   -1.338235
  C     -0.548679   -0.143855   -0.346336
  C     -1.745515   -0.867478   -0.328664
  C     -2.722520   -0.561419    0.616615
  C     -2.508569    0.470001    1.530410
  C     -1.318334    1.204172    1.497677
  C     -0.324166    0.909842    0.551465
  C      0.930760    1.704754    0.492174
  O      1.827074    1.603070   -0.325045
  O      1.010303    2.618359    1.479011
  H      3.216826   -2.132148   -1.580189
  H      2.780654   -0.576366   -2.311072
  H      1.910203   -2.076318   -2.784100
  H     -1.911601   -1.670237   -1.041572
  H     -3.650328   -1.127819    0.642879
  H     -3.270233    0.706863    2.269912
  H     -1.179842    2.008443    2.216767
  H      1.878507    3.047885    1.329221

 Total Charge           Charge          ....    0
 Multiplicity           Mult            ....    1
 Number of Electrons    NEL             ....   94
 Basis Dimension        Dim             ....  222

ORBITAL ENERGIES
----------------

  NO   OCC          E(Eh)            E(eV)
   0   2.0000     -20.615392      -560.9733
   1   2.0000     -20.612565      -560.8964
   2   2.0000     -20.550420      -559.2054
   3   2.0000     -20.548062      -559.1412
   4   2.0000     -11.403014      -310.2918
   5   2.0000     -11.397321      -310.1369
   6   2.0000     -11.331709      -308.3515
   7   2.0000     -11.270889      -306.6965
   8   2.0000     -11.269347      -306.6545
   9   2.0000     -11.268357      -306.6276
  10   2.0000     -11.256907      -306.3160
  11   2.0000     -11.255538      -306.2788
  12   2.0000     -11.242372      -305.9205
  13   2.0000      -1.458887       -39.6983
  14   2.0000      -1.448220       -39.4081
  15   2.0000      -1.351024       -36.7632
  16   2.0000      -1.342043       -36.5188
  17   2.0000      -1.166538       -31.7431
  18   2.0000      -1.052829       -28.6489
  19   2.0000      -1.039106       -28.2755
  20   2.0000      -0.994455       -27.0605
  21   2.0000      -0.903185       -24.5769
  22   2.0000      -0.856939       -23.3185
  23   2.0000      -0.830049       -22.5868
  24   2.0000      -0.775769       -21.1097
  25   2.0000      -0.728788       -19.8313
  26   2.0000      -0.706205       -19.2168
  27   2.0000      -0.696848       -18.9622
  28   2.0000      -0.685439       -18.6517
  29   2.0000      -0.681877       -18.5548
  30   2.0000      -0.659334       -17.9414
  31   2.0000      -0.641066       -17.4443
  32   2.0000      -0.633300       -17.2330
  33   2.0000      -0.620801       -16.8929
  34   2.0000      -0.594198       -16.1690
  35   2.0000      -0.586239       -15.9524
  36   2.0000      -0.564883       -15.3713
  37   2.0000      -0.559938       -15.2367
  38   2.0000      -0.538356       -14.6494
  39   2.0000      -0.528215       -14.3734
  40   2.0000      -0.518842       -14.1184
  41   2.0000      -0.489772       -13.3274
  42   2.0000      -0.481025       -13.0894
  43   2.0000      -0.455211       -12.3869
  44   2.0000      -0.453440       -12.3387
  45   2.0000      -0.366293        -9.9673
  46   2.0000      -0.352316        -9.5870
  47   0.0000       0.072716         1.9787
  48   0.0000       0.116426         3.1681
  49   0.0000       0.170312         4.6344
  50   0.0000       0.176801         4.8110
  51   0.0000       0.192469         5.2373

MULLIKEN ATOMIC CHARGES
-----------------------
   0 C :   -0.019626
   1 C :    0.450149
   2 O :   -0.402332
   3 O :   -0.531095
   4 C :    0.328660
   5 C :   -0.050159
   6 C :    0.012858
   7 C :   -0.054274
   8 C :    0.049975
   9 C :   -0.298843
  10 C :    0.603114
  11 O :   -0.412052
  12 O :   -0.350287
  13 H :    0.064050
  14 H :    0.087432
  15 H :    0.065459
  16 H :    0.047731
  17 H :    0.056860
  18 H :    0.051366
  19 H :    0.072734
  20 H :    0.228280
Sum of atomic charges:    0.0000000

LOEWDIN ATOMIC CHARGES
----------------------
   0 C :   -0.045591
   1 C :    0.244308
   2 O :   -0.261838
   3 O :   -0.165181
   4 C :    0.132319
   5 C :   -0.036236
   6 C :    0.019640
   7 C :   -0.040127
   8 C :    0.035014
   9 C :   -0.112366
  10 C :    0.223032
  11 O :   -0.281210
  12 O :   -0.103122
  13 H :    0.037604
  14 H :    0.049815
  15 H :    0.041530
  16 H :    0.037079
  17 H :    0.034878
  18 H :    0.031513
  19 H :    0.041640
  20 H :    0.117299

  Mayer bond orders larger than 0.100000
B(  0-C ,  1-C ) :   1.0013 B(  0-C , 13-H ) :   0.9832 B(  0-C , 14-H ) :   0.9677
B(  0-C , 15-H ) :   0.9667 B(  1-C ,  2-O ) :   1.9862 B(  1-C ,  3-O ) :   0.9687
B(  3-O ,  4-C ) :   0.8863 B(  4-C ,  5-C ) :   1.4590 B(  4-C ,  9-C ) :   1.4139
B(  5-C ,  6-C ) :   1.3932 B(  5-C , 16-H ) :   1.0028 B(  6-C ,  7-C ) :   1.3988
B(  6-C , 17-H ) :   0.9950 B(  7-C ,  8-C ) :   1.4343 B(  7-C , 18-H ) :   1.0011
B(  8-C ,  9-C ) :   1.3831 B(  8-C , 19-H ) :   0.9944 B(  9-C , 10-C ) :   0.9547
B( 10-C , 11-O ) :   1.9876 B( 10-C , 12-O ) :   1.1690 B( 12-O , 20-H ) :   0.9401

FINAL SINGLE POINT ENERGY      -644.462727102671

DIPOLE MOMENT
-------------
                                X             Y             Z
Electronic contribution:      0.23864       3.09420       1.67819
Nuclear contribution   :     -1.03160      -2.84456      -1.77252
                        -----------------------------------------
Total Dipole Moment    :     -0.79296       0.24964      -0.09433
                        -----------------------------------------
Magnitude (a.u.)       :      0.83666
Magnitude (Debye)      :      2.12662

Rotational constants in cm-1:     0.036369     0.025564     0.016827
Rotational constants in MHz :  1090.318146   766.383851   504.473620

                             ****ORCA TERMINATED NORMALLY****
TOTAL RUN TIME: 0 days 0 hours 0 minutes 6 seconds 50 msec
