                         Program Version 5.0.3 -  RELEASE  -
|  1> !RHF def2-SVP TightSCF PAL16
|  2> *xyz 0 1
|  3> C -1.169146820208032 1.9648103401533186 -1.546428298894808
|  4> N -1.4030612725423588 0.9085597657338843 -0.570827327980406
|  5> C -2.2999399799444378 -0.09280424682309257 -0.9084706870953255
|  6> O -2.8043912984771424 -0.16596079385068643 -2.028814964815966
|  7> C -2.755679892256834 -1.0515666932842762 0.17671280433289915
|  8> C -1.6592312362384878 -1.6066620658955109 1.0511487832941901
|  9> S -0.8425610158689042 -0.29347702447590207 1.9062296472601794
| 10> O -1.8444588654724234 0.4008769035120437 2.6957489589771377
| 11> O 0.33391614439862466 -0.8454036720764859 2.5506580445457367
| 12> C -0.3887963455356645 0.7580408975818452 0.49639567351281627
| 13> C 0.9738030463737429 0.3073571644158357 -0.031447443364850884
| 14> C 1.1148264437425364 -0.6449759972788963 -1.0542899703874382
| 15> C 2.3823646829903056 -1.032647762405214 -1.5015111486194388
| 16> C 3.5333665052503616 -0.4783872036335788 -0.9373314034637531
| 17> Cl 5.061695355935241 -1.0032669289277374 -1.5458517702502077
| 18> C 3.414224270069601 0.4706127055379309 0.07993490529863412
| 19> Cl 4.7869771492237305 1.2090306583704982 0.8246370644759945
| 20> C 2.144183460745305 0.8586162249864733 0.5267082497944485
| 21> H -0.8720752630725069 2.881147999238443 -1.0284954948835132
| 22> H -2.0787308232020227 2.168955062723972 -2.1194600755987008
| 23> H -0.3817602743987855 1.6552836199843513 -2.2391486315896927
| 24> H -3.5100198851877185 -0.5277777802766783 0.7755106535567218
| 25> H -3.262655454590809 -1.890402049479663 -0.31528669470166076
| 26> H -0.9112439065015036 -2.1523164812315247 0.4699434415366892
| 27> H -2.0683557896897278 -2.282795228003886 1.8080388093185815
| 28> H -0.27828935417991346 1.7576730165036145 0.9380629212836157
| 29> H 0.2474174390638074 -1.0938741676738488 -1.5350000071897516
| 30> H 2.4651037534191707 -1.7693807588446127 -2.2983911941129604
| 31> H 2.0725192261555687 1.5907344954178582 1.3310228811820195
| 32> *
| 33>
| 34>                          ****END OF INPUT****

CARTESIAN COORDINATES (ANGSTROEM)
---------------------------------
  C     -1.169147    1.964810   -1.546428
  N     -1.403061    0.908560   -0.570827
  C     -2.299940   -0.092804   -0.908471
  O     -2.804391   -0.165961   -2.028815
  C     -2.755680   -1.051567    0.176713
  C     -1.659231   -1.606662    1.051149
  S     -0.842561   -0.293477    1.906230
  O     -1.844459    0.400877    2.695749
  O      0.333916   -0.845404    2.550658
  C     -0.388796    0.758041    0.496396
  C      0.973803    0.307357   -0.031447
  C      1.114826   -0.644976   -1.054290
  C      2.382365   -1.032648   -1.501511
  C      3.533367   -0.478387   -0.937331
  Cl     5.061695   -1.003267   -1.545852
  C      3.414224    0.470613    0.079935
  Cl     4.786977    1.209031    0.824637
  C      2.144183    0.858616    0.526708
  H     -0.872075    2.881148   -1.028495
  H     -2.078731    2.168955   -2.119460
  H     -0.381760    1.655284   -2.239149
  H     -3.510020   -0.527778    0.775511
  H     -3.262655   -1.890402   -0.315287
  H     -0.911244   -2.152316    0.469943
  H     -2.068356   -2.282795    1.808039
  H     -0.278289    1.757673    0.938063
  H      0.247417   -1.093874   -1.535000
  H      2.465104   -1.769381   -2.298391
  H      2.072519    1.590734    1.331023

 Total Charge           Charge          ....    0
 Multiplicity           Mult            ....    1
 Number of Electrons    NEL             ....  158
 Basis Dimension        Dim             ....  319

ORBITAL ENERGIES
----------------

  NO   OCC          E(Eh)            E(eV)
   0   2.0000    -104.815411     -2852.1723
   1   2.0000    -104.814551     -2852.1489
   2   2.0000     -92.178632     -2508.3081
   3   2.0000     -20.556826      -559.3797
   4   2.0000     -20.552152      -559.2525
   5   2.0000     -20.544339      -559.0399
   6   2.0000     -15.629582      -425.3025
   7   2.0000     -11.385727      -309.8214
   8   2.0000     -11.354778      -308.9792
   9   2.0000     -11.334675      -308.4322
  10   2.0000     -11.333489      -308.3999
  11   2.0000     -11.298965      -307.4605
  12   2.0000     -11.295654      -307.3704
  13   2.0000     -11.290140      -307.2203
  14   2.0000     -11.288074      -307.1641
  15   2.0000     -11.286063      -307.1094
  16   2.0000     -11.284205      -307.0588
  17   2.0000     -11.280270      -306.9518
  18   2.0000     -10.578955      -287.8680
  19   2.0000     -10.578049      -287.8434
  20   2.0000      -9.185072      -249.9385
  21   2.0000      -8.054070      -219.1624
  22   2.0000      -8.053167      -219.1378
  23   2.0000      -8.050326      -219.0605
  24   2.0000      -8.050297      -219.0597
  25   2.0000      -8.049426      -219.0360
  26   2.0000      -8.049375      -219.0346
  27   2.0000      -6.875773      -187.0993
  28   2.0000      -6.874930      -187.0763
  29   2.0000      -6.874496      -187.0645
  30   2.0000      -1.465188       -39.8698
  31   2.0000      -1.391071       -37.8530
  32   2.0000      -1.341295       -36.4985
  33   2.0000      -1.274244       -34.6739
  34   2.0000      -1.227808       -33.4103
  35   2.0000      -1.151780       -31.3415
  36   2.0000      -1.144946       -31.1556
  37   2.0000      -1.124267       -30.5929
  38   2.0000      -1.067713       -29.0539
  39   2.0000      -1.022695       -27.8290
  40   2.0000      -0.991954       -26.9924
  41   2.0000      -0.983931       -26.7741
  42   2.0000      -0.927665       -25.2430
  43   2.0000      -0.871118       -23.7043
  44   2.0000      -0.856462       -23.3055
  45   2.0000      -0.830968       -22.6118
  46   2.0000      -0.760026       -20.6814
  47   2.0000      -0.736685       -20.0462
  48   2.0000      -0.723129       -19.6773
  49   2.0000      -0.714655       -19.4468
  50   2.0000      -0.706621       -19.2281
  51   2.0000      -0.680406       -18.5148
  52   2.0000      -0.673865       -18.3368
  53   2.0000      -0.670231       -18.2379
  54   2.0000      -0.655446       -17.8356
  55   2.0000      -0.646190       -17.5837
  56   2.0000      -0.624899       -17.0044
  57   2.0000      -0.619301       -16.8520
  58   2.0000      -0.609268       -16.5790
  59   2.0000      -0.603250       -16.4153
  60   2.0000      -0.598605       -16.2889
  61   2.0000      -0.586816       -15.9681
  62   2.0000      -0.578500       -15.7418
  63   2.0000      -0.571103       -15.5405
  64   2.0000      -0.557023       -15.1574
  65   2.0000      -0.547520       -14.8988
  66   2.0000      -0.528197       -14.3730
  67   2.0000      -0.513592       -13.9755
  68   2.0000      -0.512372       -13.9423
  69   2.0000      -0.502218       -13.6661
  70   2.0000      -0.491068       -13.3626
  71   2.0000      -0.481465       -13.1013
  72   2.0000      -0.480115       -13.0646
  73   2.0000      -0.460545       -12.5321
  74   2.0000      -0.454791       -12.3755
  75   2.0000      -0.447632       -12.1807
  76   2.0000      -0.412374       -11.2213
  77   2.0000      -0.368046       -10.0150
  78   2.0000      -0.355916        -9.6850
  79   0.0000       0.075759         2.0615
  80   0.0000       0.083969         2.2849
  81   0.0000       0.136845         3.7237
  82   0.0000       0.150747         4.1020
  83   0.0000       0.164736         4.4827

MULLIKEN ATOMIC CHARGES
-----------------------
   0 C :    0.177764
   1 N :   -0.634833
   2 C :    0.424669
   3 O :   -0.430969
   4 C :   -0.042357
   5 C :   -0.102768
   6 S :    1.014339
   7 O :   -0.622117
   8 O :   -0.603241
   9 C :    0.127797
  10 C :   -0.127497
  11 C :   -0.025614
  12 C :    0.003742
  13 C :    0.034146
  14 Cl:   -0.089652
  15 C :    0.024981
  16 Cl:   -0.087577
  17 C :    0.075978
  18 H :    0.041911
  19 H :    0.084274
  20 H :    0.051853
  21 H :    0.113525
  22 H :    0.089235
  23 H :    0.097247
  24 H :    0.117379
  25 H :    0.105644
  26 H :    0.064264
  27 H :    0.061711
  28 H :    0.056169
Sum of atomic charges:   -0.0000000

LOEWDIN ATOMIC CHARGES
----------------------
   0 C :    0.083036
   1 N :   -0.151323
   2 C :    0.175676
   3 O :   -0.294554
   4 C :   -0.045552
   5 C :   -0.129300
   6 S :    1.297009
   7 O :   -0.601616
   8 O :   -0.584494
   9 C :   -0.036181
  10 C :   -0.068325
  11 C :   -0.017217
  12 C :   -0.022015
  13 C :   -0.121075
  14 Cl:    0.117696
  15 C :   -0.123063
  16 Cl:    0.118518
  17 C :   -0.005720
  18 H :    0.019536
  19 H :    0.038485
  20 H :    0.016074
  21 H :    0.053488
  22 H :    0.049200
  23 H :    0.033964
  24 H :    0.048160
  25 H :    0.038611
  26 H :    0.032192
  27 H :    0.040789
  28 H :    0.038002

  Mayer bond orders larger than 0.100000
B(  0-C ,  1-N ) :   0.8638 B(  0-C , 18-H ) :   0.9864 B(  0-C , 19-H ) :   0.9840
B(  0-C , 20-H ) :   0.9892 B(  1-N ,  2-C ) :   1.0420 B(  1-N ,  9-C ) :   0.9368
B(  2-C ,  3-O ) :   1.9656 B(  2-C ,  4-C ) :   0.9769 B(  4-C ,  5-C ) :   0.9705
B(  4-C , 21-H ) :   0.9502 B(  4-C , 22-H ) :   0.9624 B(  5-C ,  6-S ) :   0.9054
B(  5-C , 23-H ) :   0.9545 B(  5-C , 24-H ) :   0.9537 B(  6-S ,  7-O ) :   1.5884
B(  6-S ,  8-O ) :   1.6331 B(  6-S ,  9-C ) :   0.8882 B(  9-C , 10-C ) :   0.8999
B(  9-C , 25-H ) :   0.9594 B( 10-C , 11-C ) :   1.3937 B( 10-C , 17-C ) :   1.4119
B( 11-C , 12-C ) :   1.4498 B( 11-C , 26-H ) :   0.9921 B( 12-C , 13-C ) :   1.4110
B( 12-C , 27-H ) :   1.0002 B( 13-C , 14-Cl) :   1.0053 B( 13-C , 15-C ) :   1.4452
B( 15-C , 16-Cl) :   1.0075 B( 15-C , 17-C ) :   1.4373 B( 17-C , 28-H ) :   0.9942

FINAL SINGLE POINT ENERGY     -2017.465476387279

DIPOLE MOMENT
-------------
                                X             Y             Z
Electronic contribution:     28.16461      -0.26855       2.88572
Nuclear contribution   :    -28.47785       0.17866      -3.76456
                        -----------------------------------------
Total Dipole Moment    :     -0.31323      -0.08990      -0.87884
                        -----------------------------------------
Magnitude (a.u.)       :      0.93731
Magnitude (Debye)      :      2.38245

Rotational constants in cm-1:     0.018748     0.006265     0.005571
Rotational constants in MHz :   562.046364   187.830128   167.021562

                             ****ORCA TERMINATED NORMALLY****
TOTAL RUN TIME: 0 days 0 hours 0 minutes 16 seconds 73 msec
