                         Program Version 5.0.3 -  RELEASE  -
|  1> !RHF def2-SVP TightSCF PAL16
|  2> *xyz 0 1
|  3> C -5.832213609630581 2.2162886486136175 2.209186709773774
|  4> C -5.439881339766042 1.358709497756477 1.0432167582506442
|  5> C -5.8350699526456795 1.6995822980406738 -0.24935368397726357
|  6> C -5.436515395666499 0.9196586624810975 -1.3350499090052996
|  7> C -4.632118489364329 -0.21938516015361645 -1.1582658003816166
|  8> C -4.223414536826289 -0.9941895720489137 -2.381703091385495
|  9> C -4.208175564602703 -0.5641811658442301 0.14190231264635778
| 10> C -3.299605585506751 -1.7435854320806765 0.436646195728536
| 11> N -1.9135953848090723 -1.3457273196792958 0.5515313384805003
| 12> C -1.3293186223873419 -0.9206042877269315 1.7044972795244393
| 13> O -1.841065745407101 -0.7926177561161278 2.8041157096532654
| 14> N -0.0003689672768338708 -0.6679473257115144 1.4550804592043194
| 15> C 0.33598140342299526 -0.8604870251558563 0.06490553532016576
| 16> C 1.5326029260908367 -1.7779532595651724 -0.13889685999086415
| 17> C 2.391166999277271 -1.0357419000245978 -1.1553040961140126
| 18> N 2.124645137216248 0.3980497760480925 -0.9482826453431975
| 19> C 2.9012514210149543 0.9763276258663883 0.1767322825482894
| 20> C 4.405722335963025 1.0606888077888255 -0.05048073571537765
| 21> N 5.167881108053509 0.055280728777312216 0.43761836701103485
| 22> C 6.498859813720861 0.12355679317678282 0.22790536068081477
| 23> C 7.339714410943993 -0.9981688586349372 0.7584309881309119
| 24> C 7.081677086387399 1.1700604397985401 -0.4501344336895912
| 25> C 6.2154883447220595 2.1379516833461603 -0.8942218519014432
| 26> Cl 6.8028638415245615 3.5093497321801626 -1.743710560528374
| 27> N 4.888064835586061 2.1248465475536444 -0.7129909541944243
| 28> C 0.6719480397736652 0.443028654611404 -0.6717774109150099
| 29> C -0.9838955136941789 -1.4471684174230468 -0.4456909180473797
| 30> O -1.1589846116388303 -1.9170092150244735 -1.5616706854764937
| 31> C -4.61987242835191 0.23932073687098646 1.2258857501482907
| 32> H -6.839346034894796 2.622554891005534 2.0712596544654973
| 33> H -5.127251708773904 3.0463785544939306 2.3173191275398843
| 34> H -5.839744322690041 1.6376876065137733 3.138655057438942
| 35> H -6.452885380043017 2.5775605166119373 -0.42260224035554106
| 36> H -5.758702878800821 1.2131968099163262 -2.3324678054042094
| 37> H -3.182226794360446 -0.7776831663352223 -2.6318404004089144
| 38> H -4.359051234404311 -2.06908525690671 -2.2353675544714444
| 39> H -4.836226796137746 -0.7190651658631093 -3.2476017419702194
| 40> H -3.3918231492708824 -2.517144674792063 -0.3313108115525508
| 41> H -3.6127390879470385 -2.2078536577019436 1.3803857183198018
| 42> H 0.6016292440288753 -0.2946375744338135 2.1773790106384046
| 43> H 2.094528501699027 -1.910776880719496 0.7933220831326547
| 44> H 1.2591654437690976 -2.772116863025862 -0.5072355642142221
| 45> H 2.0663007450357123 -1.3021409585467518 -2.169493620029442
| 46> H 3.4469961261199478 -1.3135902736733391 -1.0908228699619666
| 47> H 2.55680581631714 2.005116510660132 0.3457790488619581
| 48> H 2.7236264350853054 0.43459599845909913 1.1139763842583648
| 49> H 6.724976318626876 -1.7200431483905378 1.3053385160473783
| 50> H 8.100406426453803 -0.6114527736855291 1.4440823972998502
| 51> H 7.831936872629847 -1.523383757746006 -0.06602837922955598
| 52> H 8.146915003437927 1.2296483005242758 -0.6225756500035391
| 53> H 0.3801937817775474 1.3421730486731158 -0.11585675274293143
| 54> H 0.15209424587634918 0.4936504260064379 -1.6368773739212532
| 55> H -4.289349529664413 -0.011522448763869975 2.234383202355678
| 56> *
| 57>
| 58>                          ****END OF INPUT****

CARTESIAN COORDINATES (ANGSTROEM)
---------------------------------
  C     -5.832214    2.216289    2.209187
  C     -5.439881    1.358709    1.043217
  C     -5.835070    1.699582   -0.249354
  C     -5.436515    0.919659   -1.335050
  C     -4.632118   -0.219385   -1.158266
  C     -4.223415   -0.994190   -2.381703
  C     -4.208176   -0.564181    0.141902
  C     -3.299606   -1.743585    0.436646
  N     -1.913595   -1.345727    0.551531
  C     -1.329319   -0.920604    1.704497
  O     -1.841066   -0.792618    2.804116
  N     -0.000369   -0.667947    1.455080
  C      0.335981   -0.860487    0.064906
  C      1.532603   -1.777953   -0.138897
  C      2.391167   -1.035742   -1.155304
  N      2.124645    0.398050   -0.948283
  C      2.901251    0.976328    0.176732
  C      4.405722    1.060689   -0.050481
  N      5.167881    0.055281    0.437618
  C      6.498860    0.123557    0.227905
  C      7.339714   -0.998169    0.758431
  C      7.081677    1.170060   -0.450134
  C      6.215488    2.137952   -0.894222
  Cl     6.802864    3.509350   -1.743711
  N      4.888065    2.124847   -0.712991
  C      0.671948    0.443029   -0.671777
  C     -0.983896   -1.447168   -0.445691
  O     -1.158985   -1.917009   -1.561671
  C     -4.619872    0.239321    1.225886
  H     -6.839346    2.622555    2.071260
  H     -5.127252    3.046379    2.317319
  H     -5.839744    1.637688    3.138655
  H     -6.452885    2.577561   -0.422602
  H     -5.758703    1.213197   -2.332468
  H     -3.182227   -0.777683   -2.631840
  H     -4.359051   -2.069085   -2.235368
  H     -4.836227   -0.719065   -3.247602
  H     -3.391823   -2.517145   -0.331311
  H     -3.612739   -2.207854    1.380386
  H      0.601629   -0.294638    2.177379
  H      2.094529   -1.910777    0.793322
  H      1.259165   -2.772117   -0.507236
  H      2.066301   -1.302141   -2.169494
  H      3.446996   -1.313590   -1.090823
  H      2.556806    2.005117    0.345779
  H      2.723626    0.434596    1.113976
  H      6.724976   -1.720043    1.305339
  H      8.100406   -0.611453    1.444082
  H      7.831937   -1.523384   -0.066028
  H      8.146915    1.229648   -0.622576
  H      0.380194    1.342173   -0.115857
  H      0.152094    0.493650   -1.636877
  H     -4.289350   -0.011522    2.234383

 Total Charge           Charge          ....    0
 Multiplicity           Mult            ....    1
 Number of Electrons    NEL             ....  218
 Basis Dimension        Dim             ....  530

ORBITAL ENERGIES
----------------

  NO   OCC          E(Eh)            E(eV)
   0   2.0000    -104.810111     -2852.0281
   1   2.0000     -20.549778      -559.1879
   2   2.0000     -20.522969      -558.4584
   3   2.0000     -15.627351      -425.2418
   4   2.0000     -15.594302      -424.3425
   5   2.0000     -15.586252      -424.1235
   6   2.0000     -15.582982      -424.0345
   7   2.0000     -15.564757      -423.5386
   8   2.0000     -11.398264      -310.1625
   9   2.0000     -11.383538      -309.7618
  10   2.0000     -11.366636      -309.3019
  11   2.0000     -11.342907      -308.6562
  12   2.0000     -11.323142      -308.1184
  13   2.0000     -11.301230      -307.5221
  14   2.0000     -11.287876      -307.1587
  15   2.0000     -11.280158      -306.9487
  16   2.0000     -11.274263      -306.7883
  17   2.0000     -11.263701      -306.5009
  18   2.0000     -11.259911      -306.3977
  19   2.0000     -11.254600      -306.2532
  20   2.0000     -11.242332      -305.9194
  21   2.0000     -11.239520      -305.8429
  22   2.0000     -11.238138      -305.8053
  23   2.0000     -11.232224      -305.6444
  24   2.0000     -11.229735      -305.5766
  25   2.0000     -11.228538      -305.5441
  26   2.0000     -11.227870      -305.5259
  27   2.0000     -11.223501      -305.4070
  28   2.0000     -11.219120      -305.2878
  29   2.0000     -10.574662      -287.7512
  30   2.0000      -8.049708      -219.0437
  31   2.0000      -8.046032      -218.9437
  32   2.0000      -8.045894      -218.9399
  33   2.0000      -1.422429       -38.7063
  34   2.0000      -1.379028       -37.5253
  35   2.0000      -1.325789       -36.0766
  36   2.0000      -1.299311       -35.3561
  37   2.0000      -1.254833       -34.1457
  38   2.0000      -1.217974       -33.1428
  39   2.0000      -1.214381       -33.0450
  40   2.0000      -1.149926       -31.2911
  41   2.0000      -1.143255       -31.1096
  42   2.0000      -1.083729       -29.4898
  43   2.0000      -1.057141       -28.7663
  44   2.0000      -1.055345       -28.7174
  45   2.0000      -1.029472       -28.0134
  46   2.0000      -0.997394       -27.1405
  47   2.0000      -0.995200       -27.0808
  48   2.0000      -0.973169       -26.4813
  49   2.0000      -0.962971       -26.2038
  50   2.0000      -0.953122       -25.9358
  51   2.0000      -0.887055       -24.1380
  52   2.0000      -0.877264       -23.8716
  53   2.0000      -0.863678       -23.5019
  54   2.0000      -0.844163       -22.9708
  55   2.0000      -0.839745       -22.8506
  56   2.0000      -0.813897       -22.1473
  57   2.0000      -0.799869       -21.7655
  58   2.0000      -0.786504       -21.4018
  59   2.0000      -0.762954       -20.7610
  60   2.0000      -0.747658       -20.3448
  61   2.0000      -0.721253       -19.6263
  62   2.0000      -0.701790       -19.0967
  63   2.0000      -0.698828       -19.0161
  64   2.0000      -0.687718       -18.7138
  65   2.0000      -0.669306       -18.2127
  66   2.0000      -0.666148       -18.1268
  67   2.0000      -0.657373       -17.8880
  68   2.0000      -0.653191       -17.7742
  69   2.0000      -0.649478       -17.6732
  70   2.0000      -0.636241       -17.3130
  71   2.0000      -0.630581       -17.1590
  72   2.0000      -0.625041       -17.0082
  73   2.0000      -0.618634       -16.8339
  74   2.0000      -0.607841       -16.5402
  75   2.0000      -0.595029       -16.1916
  76   2.0000      -0.593308       -16.1447
  77   2.0000      -0.581906       -15.8345
  78   2.0000      -0.577999       -15.7281
  79   2.0000      -0.575032       -15.6474
  80   2.0000      -0.570324       -15.5193
  81   2.0000      -0.568578       -15.4718
  82   2.0000      -0.562262       -15.2999
  83   2.0000      -0.558961       -15.2101
  84   2.0000      -0.554141       -15.0790
  85   2.0000      -0.545802       -14.8520
  86   2.0000      -0.544693       -14.8218
  87   2.0000      -0.541317       -14.7300
  88   2.0000      -0.532525       -14.4907
  89   2.0000      -0.529324       -14.4036
  90   2.0000      -0.525159       -14.2903
  91   2.0000      -0.515193       -14.0191
  92   2.0000      -0.502216       -13.6660
  93   2.0000      -0.496357       -13.5066
  94   2.0000      -0.486583       -13.2406
  95   2.0000      -0.481443       -13.1007
  96   2.0000      -0.476287       -12.9604
  97   2.0000      -0.470157       -12.7936
  98   2.0000      -0.468726       -12.7547
  99   2.0000      -0.458642       -12.4803
 100   2.0000      -0.440296       -11.9810
 101   2.0000      -0.430193       -11.7061
 102   2.0000      -0.421258       -11.4630
 103   2.0000      -0.415867       -11.3163
 104   2.0000      -0.413691       -11.2571
 105   2.0000      -0.384371       -10.4593
 106   2.0000      -0.367939       -10.0121
 107   2.0000      -0.329612        -8.9692
 108   2.0000      -0.310972        -8.4620
 109   0.0000       0.088493         2.4080
 110   0.0000       0.092012         2.5038
 111   0.0000       0.125012         3.4018
 112   0.0000       0.136611         3.7174
 113   0.0000       0.149672         4.0728

MULLIKEN ATOMIC CHARGES
-----------------------
   0 C :    0.080491
   1 C :   -0.191865
   2 C :   -0.018912
   3 C :   -0.038201
   4 C :   -0.200221
   5 C :    0.099611
   6 C :   -0.200392
   7 C :    0.348330
   8 N :   -0.614999
   9 C :    0.659395
  10 O :   -0.444549
  11 N :   -0.462286
  12 C :   -0.286817
  13 C :    0.087354
  14 C :    0.160262
  15 N :   -0.636996
  16 C :    0.319023
  17 C :    0.153714
  18 N :   -0.393147
  19 C :    0.025585
  20 C :    0.060534
  21 C :   -0.070119
  22 C :    0.242203
  23 Cl:   -0.107325
  24 N :   -0.335197
  25 C :    0.344136
  26 C :    0.544356
  27 O :   -0.416325
  28 C :   -0.020132
  29 H :    0.033725
  30 H :    0.051981
  31 H :    0.037498
  32 H :    0.024551
  33 H :    0.026571
  34 H :    0.072000
  35 H :    0.036218
  36 H :    0.025187
  37 H :    0.064651
  38 H :    0.068607
  39 H :    0.181445
  40 H :    0.048815
  41 H :    0.060856
  42 H :    0.052469
  43 H :    0.056782
  44 H :    0.050837
  45 H :    0.010463
  46 H :    0.062532
  47 H :    0.059674
  48 H :    0.062160
  49 H :    0.057905
  50 H :    0.046401
  51 H :    0.067310
  52 H :    0.053852
Sum of atomic charges:   -0.0000000

LOEWDIN ATOMIC CHARGES
----------------------
   0 C :   -0.019955
   1 C :   -0.042341
   2 C :   -0.023908
   3 C :   -0.029434
   4 C :   -0.032282
   5 C :   -0.022592
   6 C :   -0.057630
   7 C :    0.103373
   8 N :   -0.083470
   9 C :    0.204132
  10 O :   -0.322573
  11 N :   -0.080235
  12 C :   -0.010708
  13 C :   -0.014239
  14 C :    0.062973
  15 N :   -0.187990
  16 C :    0.066329
  17 C :    0.112121
  18 N :   -0.190121
  19 C :    0.089899
  20 C :   -0.026220
  21 C :   -0.115732
  22 C :   -0.005173
  23 Cl:    0.121586
  24 N :   -0.176736
  25 C :    0.080778
  26 C :    0.202035
  27 O :   -0.280069
  28 C :   -0.016549
  29 H :    0.021900
  30 H :    0.027980
  31 H :    0.023868
  32 H :    0.022964
  33 H :    0.023413
  34 H :    0.031921
  35 H :    0.021838
  36 H :    0.020009
  37 H :    0.033307
  38 H :    0.037017
  39 H :    0.088172
  40 H :    0.022697
  41 H :    0.030174
  42 H :    0.018402
  43 H :    0.017872
  44 H :    0.029047
  45 H :   -0.002517
  46 H :    0.035089
  47 H :    0.036078
  48 H :    0.037270
  49 H :    0.039178
  50 H :    0.021681
  51 H :    0.026804
  52 H :    0.030569

  Mayer bond orders larger than 0.100000
B(  0-C ,  1-C ) :   0.9993 B(  0-C , 29-H ) :   0.9846 B(  0-C , 30-H ) :   0.9745
B(  0-C , 31-H ) :   0.9866 B(  1-C ,  2-C ) :   1.4094 B(  1-C , 28-C ) :   1.4305
B(  2-C ,  3-C ) :   1.4385 B(  2-C , 32-H ) :   1.0038 B(  3-C ,  4-C ) :   1.4311
B(  3-C , 33-H ) :   1.0020 B(  4-C ,  5-C ) :   1.0060 B(  4-C ,  6-C ) :   1.4543
B(  5-C , 34-H ) :   0.9664 B(  5-C , 35-H ) :   0.9783 B(  5-C , 36-H ) :   0.9793
B(  6-C ,  7-C ) :   1.0198 B(  6-C , 28-C ) :   1.4294 B(  7-C ,  8-N ) :   0.8241
B(  7-C , 37-H ) :   0.9736 B(  7-C , 38-H ) :   0.9709 B(  8-N ,  9-C ) :   1.0019
B(  8-N , 26-C ) :   1.0686 B(  9-C , 10-O ) :   1.9744 B(  9-C , 11-N ) :   1.1006
B( 11-N , 12-C ) :   0.8706 B( 11-N , 39-H ) :   0.9342 B( 12-C , 13-C ) :   0.9841
B( 12-C , 25-C ) :   0.9354 B( 12-C , 26-C ) :   0.9225 B( 13-C , 14-C ) :   1.0344
B( 13-C , 40-H ) :   0.9667 B( 13-C , 41-H ) :   0.9633 B( 14-C , 15-N ) :   0.9279
B( 14-C , 42-H ) :   0.9711 B( 14-C , 43-H ) :   0.9759 B( 15-N , 16-C ) :   0.9476
B( 15-N , 25-C ) :   0.9569 B( 16-C , 17-C ) :   0.9940 B( 16-C , 44-H ) :   0.9605
B( 16-C , 45-H ) :   0.9666 B( 17-C , 18-N ) :   1.4407 B( 17-C , 24-N ) :   1.4955
B( 18-N , 19-C ) :   1.4647 B( 19-C , 20-C ) :   1.0075 B( 19-C , 21-C ) :   1.3602
B( 20-C , 46-H ) :   0.9821 B( 20-C , 47-H ) :   0.9767 B( 20-C , 48-H ) :   0.9752
B( 21-C , 22-C ) :   1.3868 B( 21-C , 49-H ) :   0.9851 B( 22-C , 23-Cl) :   1.0405
B( 22-C , 24-N ) :   1.4432 B( 25-C , 50-H ) :   0.9716 B( 25-C , 51-H ) :   0.9734
B( 26-C , 27-O ) :   2.0116 B( 28-C , 52-H ) :   0.9999

FINAL SINGLE POINT ENERGY     -1689.658798277907

DIPOLE MOMENT
-------------
                                X             Y             Z
Electronic contribution:     30.81195      12.78143      -5.02190
Nuclear contribution   :    -29.16133     -13.20051       5.34033
                        -----------------------------------------
Total Dipole Moment    :      1.65062      -0.41908       0.31843
                        -----------------------------------------
Magnitude (a.u.)       :      1.73251
Magnitude (Debye)      :      4.40369

Rotational constants in cm-1:     0.010957     0.001873     0.001803
Rotational constants in MHz :   328.469480    56.137405    54.058556

                             ****ORCA TERMINATED NORMALLY****
TOTAL RUN TIME: 0 days 0 hours 0 minutes 46 seconds 380 msec
