                         Program Version 5.0.3 -  RELEASE  -
|  1> !RHF def2-SVP TightSCF PAL16
|  2> *xyz 0 1
|  3> C -5.136778891399927 0.9684046367342284 1.0886483105784286
|  4> N -3.7559924254752284 0.649541232225836 0.7325480519998169
|  5> C -3.5948276182736896 -0.7300227279359627 0.23513223822158164
|  6> C -4.074948467413773 -0.6741256398503103 -1.2202355475413447
|  7> C -3.847255332674305 0.7721642650000989 -1.6433011129807302
|  8> C -3.256042008692653 1.4494209876174273 -0.40061993989384853
|  9> C -1.7179123375330778 1.3551674225925967 -0.4035062666244567
| 10> C -1.1813604540630207 0.14381693542365984 0.37723755331647524
| 11> O 0.1291766968781396 -0.17116852640921312 -0.14098959311574136
| 12> C 0.9752026068818493 -0.8401680767202071 0.6991657058545492
| 13> O 0.6781702834832504 -1.1699159142152622 1.8424097768976704
| 14> C 2.353657858653773 -1.0891825386517497 0.05041349800578922
| 15> C 2.7776315104779865 -2.4965721621092296 0.5469127625865203
| 16> C 2.2059457072946205 -1.1144453723895913 -1.494163182790882
| 17> O 3.3410172462395047 -1.6934394017920869 -2.1426570051371012
| 18> C 3.373426842831637 0.0009093244058301913 0.4451115969133634
| 19> C 2.961613267739136 1.300596508491577 0.8003508392568812
| 20> C 3.8939470472559883 2.288671493884867 1.1346266232991837
| 21> C 5.257507116322839 2.003849580538574 1.1109987143312305
| 22> C 5.69093122020138 0.7345814245270471 0.7409553630713331
| 23> C 4.7603163171631975 -0.25230990482074533 0.40472446144944146
| 24> C -2.0976747405850644 -1.0895179680534084 0.3077230002124475
| 25> H -5.197352163390198 1.997967445675674 1.4591209757183226
| 26> H -5.4734936574962605 0.3195735048860671 1.9047785843446576
| 27> H -5.845129108737941 0.8656069853059203 0.2600176319626839
| 28> H -4.1673553146889875 -1.4688813980596795 0.8090385585246539
| 29> H -5.144926364531593 -0.9093606261729382 -1.281080708206421
| 30> H -3.550137166962939 -1.3757211591012797 -1.8770835629069391
| 31> H -4.807214599034564 1.230485612758794 -1.9120703288570136
| 32> H -3.198151223488756 0.8388374441744524 -2.522424505402871
| 33> H -3.5491396932277044 2.5047386439066397 -0.35090055579177026
| 34> H -1.321918306597591 1.363724592854161 -1.4271031705991022
| 35> H -1.303735838003836 2.256321976301468 0.07077967385602925
| 36> H -1.084915413668295 0.4570544991178395 1.4273178397909254
| 37> H 1.9862426164125628 -3.232278605080056 0.35373440668858425
| 38> H 2.9668522042932413 -2.496521855505409 1.6289707475640958
| 39> H 3.6838583538430183 -2.8714222138571497 0.06090119744877651
| 40> H 1.3370600740602494 -1.7132199166172501 -1.7923327098240407
| 41> H 2.0693350057902213 -0.10216645703171338 -1.8952918880240144
| 42> H 3.2541189865965348 -1.501732197653784 -3.093128165598203
| 43> H 1.9083794803171916 1.5787814052201112 0.8251461108712203
| 44> H 3.5507449677084737 3.2825537874070805 1.4143607906052675
| 45> H 5.981094434207065 2.7704962706395158 1.374218833055901
| 46> H 6.75523053073366 0.5071672105200025 0.7086683169155441
| 47> H 5.142561535724207 -1.2228402608364115 0.09222490609334033
| 48> H -1.9236452079595936 -1.6836875491136207 1.2154865095934135
| 49> H -1.8041155772045336 -1.7417327182241853 -0.5248353357345479
| 50> *
| 51>
| 52>                          ****END OF INPUT****

CARTESIAN COORDINATES (ANGSTROEM)
---------------------------------
  C     -5.136779    0.968405    1.088648
  N     -3.755992    0.649541    0.732548
  C     -3.594828   -0.730023    0.235132
  C     -4.074948   -0.674126   -1.220236
  C     -3.847255    0.772164   -1.643301
  C     -3.256042    1.449421   -0.400620
  C     -1.717912    1.355167   -0.403506
  C     -1.181360    0.143817    0.377238
  O      0.129177   -0.171169   -0.140990
  C      0.975203   -0.840168    0.699166
  O      0.678170   -1.169916    1.842410
  C      2.353658   -1.089183    0.050413
  C      2.777632   -2.496572    0.546913
  C      2.205946   -1.114445   -1.494163
  O      3.341017   -1.693439   -2.142657
  C      3.373427    0.000909    0.445112
  C      2.961613    1.300597    0.800351
  C      3.893947    2.288671    1.134627
  C      5.257507    2.003850    1.110999
  C      5.690931    0.734581    0.740955
  C      4.760316   -0.252310    0.404724
  C     -2.097675   -1.089518    0.307723
  H     -5.197352    1.997967    1.459121
  H     -5.473494    0.319574    1.904779
  H     -5.845129    0.865607    0.260018
  H     -4.167355   -1.468881    0.809039
  H     -5.144926   -0.909361   -1.281081
  H     -3.550137   -1.375721   -1.877084
  H     -4.807215    1.230486   -1.912070
  H     -3.198151    0.838837   -2.522425
  H     -3.549140    2.504739   -0.350901
  H     -1.321918    1.363725   -1.427103
  H     -1.303736    2.256322    0.070780
  H     -1.084915    0.457054    1.427318
  H      1.986243   -3.232279    0.353734
  H      2.966852   -2.496522    1.628971
  H      3.683858   -2.871422    0.060901
  H      1.337060   -1.713220   -1.792333
  H      2.069335   -0.102166   -1.895292
  H      3.254119   -1.501732   -3.093128
  H      1.908379    1.578781    0.825146
  H      3.550745    3.282554    1.414361
  H      5.981094    2.770496    1.374219
  H      6.755231    0.507167    0.708668
  H      5.142562   -1.222840    0.092225
  H     -1.923645   -1.683688    1.215487
  H     -1.804116   -1.741733   -0.524835

 Total Charge           Charge          ....    0
 Multiplicity           Mult            ....    1
 Number of Electrons    NEL             ....  164
 Basis Dimension        Dim             ....  433

ORBITAL ENERGIES
----------------

  NO   OCC          E(Eh)            E(eV)
   0   2.0000     -20.598235      -560.5065
   1   2.0000     -20.549863      -559.1902
   2   2.0000     -20.542018      -558.9767
   3   2.0000     -15.546540      -423.0429
   4   2.0000     -11.389698      -309.9294
   5   2.0000     -11.290471      -307.2293
   6   2.0000     -11.285537      -307.0951
   7   2.0000     -11.266908      -306.5882
   8   2.0000     -11.259965      -306.3992
   9   2.0000     -11.258014      -306.3461
  10   2.0000     -11.253686      -306.2284
  11   2.0000     -11.251094      -306.1578
  12   2.0000     -11.238204      -305.8071
  13   2.0000     -11.235831      -305.7425
  14   2.0000     -11.235523      -305.7341
  15   2.0000     -11.234493      -305.7061
  16   2.0000     -11.233299      -305.6736
  17   2.0000     -11.227245      -305.5089
  18   2.0000     -11.222064      -305.3679
  19   2.0000     -11.221755      -305.3595
  20   2.0000     -11.221597      -305.3552
  21   2.0000     -11.220799      -305.3335
  22   2.0000      -1.435590       -39.0644
  23   2.0000      -1.336747       -36.3747
  24   2.0000      -1.335248       -36.3340
  25   2.0000      -1.245930       -33.9035
  26   2.0000      -1.144438       -31.1417
  27   2.0000      -1.087099       -29.5815
  28   2.0000      -1.061512       -28.8852
  29   2.0000      -1.028049       -27.9746
  30   2.0000      -1.024180       -27.8694
  31   2.0000      -0.999767       -27.2051
  32   2.0000      -0.984315       -26.7846
  33   2.0000      -0.926791       -25.2193
  34   2.0000      -0.910866       -24.7859
  35   2.0000      -0.881539       -23.9879
  36   2.0000      -0.868640       -23.6369
  37   2.0000      -0.836195       -22.7540
  38   2.0000      -0.815410       -22.1884
  39   2.0000      -0.794789       -21.6273
  40   2.0000      -0.777195       -21.1485
  41   2.0000      -0.753061       -20.4918
  42   2.0000      -0.732068       -19.9206
  43   2.0000      -0.712110       -19.3775
  44   2.0000      -0.695380       -18.9222
  45   2.0000      -0.692432       -18.8420
  46   2.0000      -0.675563       -18.3830
  47   2.0000      -0.657737       -17.8979
  48   2.0000      -0.653285       -17.7768
  49   2.0000      -0.644661       -17.5421
  50   2.0000      -0.627662       -17.0795
  51   2.0000      -0.623940       -16.9783
  52   2.0000      -0.620042       -16.8722
  53   2.0000      -0.606736       -16.5101
  54   2.0000      -0.599033       -16.3005
  55   2.0000      -0.587913       -15.9979
  56   2.0000      -0.585135       -15.9223
  57   2.0000      -0.581378       -15.8201
  58   2.0000      -0.571200       -15.5431
  59   2.0000      -0.564434       -15.3590
  60   2.0000      -0.557241       -15.1633
  61   2.0000      -0.549318       -14.9477
  62   2.0000      -0.539059       -14.6685
  63   2.0000      -0.529686       -14.4135
  64   2.0000      -0.523115       -14.2347
  65   2.0000      -0.513368       -13.9695
  66   2.0000      -0.502122       -13.6634
  67   2.0000      -0.498019       -13.5518
  68   2.0000      -0.491387       -13.3713
  69   2.0000      -0.487606       -13.2684
  70   2.0000      -0.479259       -13.0413
  71   2.0000      -0.476060       -12.9542
  72   2.0000      -0.474872       -12.9219
  73   2.0000      -0.468949       -12.7608
  74   2.0000      -0.456706       -12.4276
  75   2.0000      -0.450203       -12.2506
  76   2.0000      -0.445216       -12.1149
  77   2.0000      -0.437635       -11.9087
  78   2.0000      -0.429982       -11.7004
  79   2.0000      -0.362838        -9.8733
  80   2.0000      -0.333205        -9.0670
  81   2.0000      -0.328052        -8.9267
  82   0.0000       0.131999         3.5919
  83   0.0000       0.132868         3.6155
  84   0.0000       0.153333         4.1724
  85   0.0000       0.166273         4.5245
  86   0.0000       0.174056         4.7363

MULLIKEN ATOMIC CHARGES
-----------------------
   0 C :    0.169057
   1 N :   -0.593544
   2 C :   -0.041249
   3 C :    0.015426
   4 C :    0.014361
   5 C :   -0.050476
   6 C :    0.094019
   7 C :    0.219042
   8 O :   -0.580180
   9 C :    0.625306
  10 O :   -0.408662
  11 C :   -0.473197
  12 C :    0.078836
  13 C :    0.445247
  14 O :   -0.465654
  15 C :   -0.062070
  16 C :   -0.029020
  17 C :   -0.030034
  18 C :   -0.033831
  19 C :   -0.037633
  20 C :   -0.017496
  21 C :    0.056777
  22 H :    0.032454
  23 H :    0.034020
  24 H :    0.004294
  25 H :    0.040501
  26 H :    0.034553
  27 H :    0.032804
  28 H :    0.034966
  29 H :    0.032868
  30 H :    0.038941
  31 H :    0.035521
  32 H :    0.032305
  33 H :    0.064532
  34 H :    0.029188
  35 H :    0.061993
  36 H :    0.058211
  37 H :    0.013840
  38 H :    0.025736
  39 H :    0.200441
  40 H :    0.045335
  41 H :    0.038070
  42 H :    0.038586
  43 H :    0.040007
  44 H :    0.048292
  45 H :    0.059237
  46 H :    0.028281
Sum of atomic charges:   -0.0000000

LOEWDIN ATOMIC CHARGES
----------------------
   0 C :    0.055051
   1 N :   -0.195606
   2 C :    0.049821
   3 C :   -0.028130
   4 C :   -0.027908
   5 C :    0.048866
   6 C :   -0.018448
   7 C :    0.128684
   8 O :   -0.189949
   9 C :    0.244420
  10 O :   -0.265839
  11 C :   -0.072034
  12 C :   -0.008793
  13 C :    0.139168
  14 O :   -0.206080
  15 C :   -0.011593
  16 C :   -0.027038
  17 C :   -0.025390
  18 C :   -0.027978
  19 C :   -0.024918
  20 C :   -0.010478
  21 C :   -0.025360
  22 H :    0.014144
  23 H :    0.015116
  24 H :   -0.006991
  25 H :    0.015019
  26 H :    0.012674
  27 H :    0.013565
  28 H :    0.012913
  29 H :    0.013615
  30 H :    0.014428
  31 H :    0.015980
  32 H :    0.018168
  33 H :    0.022427
  34 H :    0.019266
  35 H :    0.028624
  36 H :    0.022156
  37 H :   -0.001707
  38 H :    0.005501
  39 H :    0.090011
  40 H :    0.024749
  41 H :    0.026514
  42 H :    0.025292
  43 H :    0.027399
  44 H :    0.030246
  45 H :    0.027086
  46 H :    0.013338

  Mayer bond orders larger than 0.100000
B(  0-C ,  1-N ) :   0.9429 B(  0-C , 22-H ) :   0.9920 B(  0-C , 23-H ) :   0.9918
B(  0-C , 24-H ) :   0.9792 B(  1-N ,  2-C ) :   0.9268 B(  1-N ,  5-C ) :   0.9266
B(  2-C ,  3-C ) :   0.9982 B(  2-C , 21-C ) :   0.9995 B(  2-C , 25-H ) :   0.9759
B(  3-C ,  4-C ) :   1.0277 B(  3-C , 26-H ) :   0.9722 B(  3-C , 27-H ) :   0.9740
B(  4-C ,  5-C ) :   0.9977 B(  4-C , 28-H ) :   0.9721 B(  4-C , 29-H ) :   0.9738
B(  5-C ,  6-C ) :   0.9992 B(  5-C , 30-H ) :   0.9751 B(  6-C ,  7-C ) :   1.0202
B(  6-C , 31-H ) :   0.9736 B(  6-C , 32-H ) :   0.9725 B(  7-C ,  8-O ) :   0.7626
B(  7-C , 21-C ) :   1.0395 B(  7-C , 33-H ) :   0.9587 B(  8-O ,  9-C ) :   1.0427
B(  9-C , 10-O ) :   1.9893 B(  9-C , 11-C ) :   0.8855 B( 11-C , 12-C ) :   1.0269
B( 11-C , 13-C ) :   0.9665 B( 11-C , 15-C ) :   0.9380 B( 12-C , 34-H ) :   0.9825
B( 12-C , 35-H ) :   0.9803 B( 12-C , 36-H ) :   0.9768 B( 13-C , 14-O ) :   0.9449
B( 13-C , 37-H ) :   0.9782 B( 13-C , 38-H ) :   0.9683 B( 14-O , 39-H ) :   0.9679
B( 15-C , 16-C ) :   1.4344 B( 15-C , 20-C ) :   1.4434 B( 16-C , 17-C ) :   1.4311
B( 16-C , 40-H ) :   0.9874 B( 17-C , 18-C ) :   1.4187 B( 17-C , 41-H ) :   0.9981
B( 18-C , 19-C ) :   1.4081 B( 18-C , 42-H ) :   0.9995 B( 19-C , 20-C ) :   1.4363
B( 19-C , 43-H ) :   0.9987 B( 20-C , 44-H ) :   0.9970 B( 21-C , 45-H ) :   0.9662
B( 21-C , 46-H ) :   0.9726

FINAL SINGLE POINT ENERGY      -974.475487138850

DIPOLE MOMENT
-------------
                                X             Y             Z
Electronic contribution:     17.18791       0.34801       4.17209
Nuclear contribution   :    -18.09271       0.17577      -5.47915
                        -----------------------------------------
Total Dipole Moment    :     -0.90479       0.52379      -1.30706
                        -----------------------------------------
Magnitude (a.u.)       :      1.67374
Magnitude (Debye)      :      4.25432

Rotational constants in cm-1:     0.020268     0.004515     0.004208
Rotational constants in MHz :   607.611096   135.345812   126.145624

                             ****ORCA TERMINATED NORMALLY****
TOTAL RUN TIME: 0 days 0 hours 0 minutes 32 seconds 306 msec
