                         Program Version 5.0.3 -  RELEASE  -
|  1> !RHF def2-SVP TightSCF PAL16
|  2> *xyz 0 1
|  3> C 3.4812838862758455 -0.6672058819714674 0.5361148779106412
|  4> N 2.7642568521091104 0.47611075597350777 -0.03457858164875301
|  5> C 3.721488098138542 1.5248480241537148 -0.3980218468663181
|  6> C 1.9726432988025377 0.0894386052164952 -1.2271886131666276
|  7> C 0.758969231729247 -0.8557169139964353 -0.9881179478112787
|  8> O 1.2590318772756297 -2.1919486190673996 -0.7880775395357097
|  9> C -0.1747527507547584 -0.3976965784679209 0.178335539465501
| 10> C -1.3474809183074439 -1.3497844645431085 0.45916033106850646
| 11> C -2.064217041164465 -1.9990084100012004 -0.5595872345694084
| 12> C -3.1287446402029957 -2.8502184962513755 -0.25299542581137957
| 13> C -3.4988255556176067 -3.059611750758406 1.07290605065348
| 14> C -2.808890071433128 -2.4142055416538355 2.0950452406847044
| 15> C -1.7447639701352038 -1.5633696302371398 1.7910937107456117
| 16> C -0.6717135969528162 1.0385329353617678 0.015176358621076283
| 17> C -0.29406556727294364 2.0154045355490764 0.9520978727000259
| 18> C -0.728392162902954 3.3366845423327223 0.825615414851889
| 19> C -1.5483384107728715 3.7021815442850503 -0.23993059837139588
| 20> C -1.92850736720805 2.7437093434218807 -1.1754227166020494
| 21> Cl -2.9369232078540985 3.193058905948712 -2.496222234753326
| 22> C -1.4964761617441835 1.4219322601060989 -1.0552661178023255
| 23> H 4.110508127827864 -1.1752290501167673 -0.20334100736408176
| 24> H 4.124100646416251 -0.34234319992668755 1.3627999200359018
| 25> H 2.788756432568718 -1.3925700392597855 0.9721368931525612
| 26> H 4.4342909531713595 1.1891551782234517 -1.159994706940976
| 27> H 3.1983414829179337 2.409390353261609 -0.7784341077336231
| 28> H 4.28535868957556 1.8538011210074639 0.48212896592821713
| 29> H 1.5786682532289968 1.0048174408935029 -1.6875544868947703
| 30> H 2.6360714652457995 -0.37287167321213605 -1.9711244997244863
| 31> H 0.1979665792157729 -0.8869395642091189 -1.9297258869155516
| 32> H 0.5208892554874213 -2.744991757305748 -0.47714807013805804
| 33> H 0.4461000460940027 -0.4471994359393729 1.0845480528866152
| 34> H -1.8140323927448654 -1.8507445815307642 -1.6067154763372773
| 35> H -3.6747819286930636 -3.345908150449303 -1.051901896882945
| 36> H -4.329710631365715 -3.7191507474756973 1.3090626414295188
| 37> H -3.101608768354529 -2.5681156519395456 3.130463673132194
| 38> H -1.2254672091508332 -1.0614884584225444 2.6055604896895326
| 39> H 0.35764169570693466 1.7526584438990298 1.7841580470783758
| 40> H -0.4229136782863553 4.079789451888323 1.557830505946849
| 41> H -1.8844897886873948 4.7307309133246305 -0.3353562304808897
| 42> H -1.811271052180633 0.6940742418889113 -1.79752935963081
| 43> *
| 44>
| 45>                          ****END OF INPUT****

CARTESIAN COORDINATES (ANGSTROEM)
---------------------------------
  C      3.481284   -0.667206    0.536115
  N      2.764257    0.476111   -0.034579
  C      3.721488    1.524848   -0.398022
  C      1.972643    0.089439   -1.227189
  C      0.758969   -0.855717   -0.988118
  O      1.259032   -2.191949   -0.788078
  C     -0.174753   -0.397697    0.178336
  C     -1.347481   -1.349784    0.459160
  C     -2.064217   -1.999008   -0.559587
  C     -3.128745   -2.850218   -0.252995
  C     -3.498826   -3.059612    1.072906
  C     -2.808890   -2.414206    2.095045
  C     -1.744764   -1.563370    1.791094
  C     -0.671714    1.038533    0.015176
  C     -0.294066    2.015405    0.952098
  C     -0.728392    3.336685    0.825615
  C     -1.548338    3.702182   -0.239931
  C     -1.928507    2.743709   -1.175423
  Cl    -2.936923    3.193059   -2.496222
  C     -1.496476    1.421932   -1.055266
  H      4.110508   -1.175229   -0.203341
  H      4.124101   -0.342343    1.362800
  H      2.788756   -1.392570    0.972137
  H      4.434291    1.189155   -1.159995
  H      3.198341    2.409390   -0.778434
  H      4.285359    1.853801    0.482129
  H      1.578668    1.004817   -1.687554
  H      2.636071   -0.372872   -1.971124
  H      0.197967   -0.886940   -1.929726
  H      0.520889   -2.744992   -0.477148
  H      0.446100   -0.447199    1.084548
  H     -1.814032   -1.850745   -1.606715
  H     -3.674782   -3.345908   -1.051902
  H     -4.329711   -3.719151    1.309063
  H     -3.101609   -2.568116    3.130464
  H     -1.225467   -1.061488    2.605560
  H      0.357642    1.752658    1.784158
  H     -0.422914    4.079789    1.557831
  H     -1.884490    4.730731   -0.335356
  H     -1.811271    0.694074   -1.797529

 Total Charge           Charge          ....    0
 Multiplicity           Mult            ....    1
 Number of Electrons    NEL             ....  154
 Basis Dimension        Dim             ....  384

ORBITAL ENERGIES
----------------

  NO   OCC          E(Eh)            E(eV)
   0   2.0000    -104.792812     -2851.5574
   1   2.0000     -20.547079      -559.1144
   2   2.0000     -15.544847      -422.9968
   3   2.0000     -11.299893      -307.4857
   4   2.0000     -11.293246      -307.3048
   5   2.0000     -11.258725      -306.3655
   6   2.0000     -11.257254      -306.3255
   7   2.0000     -11.254505      -306.2507
   8   2.0000     -11.254209      -306.2426
   9   2.0000     -11.250781      -306.1493
  10   2.0000     -11.249762      -306.1216
  11   2.0000     -11.248489      -306.0869
  12   2.0000     -11.248303      -306.0819
  13   2.0000     -11.247422      -306.0579
  14   2.0000     -11.247167      -306.0510
  15   2.0000     -11.246966      -306.0455
  16   2.0000     -11.245773      -306.0130
  17   2.0000     -11.243629      -305.9547
  18   2.0000     -11.243591      -305.9537
  19   2.0000     -11.237554      -305.7894
  20   2.0000     -10.556696      -287.2623
  21   2.0000      -8.031835      -218.5574
  22   2.0000      -8.028233      -218.4593
  23   2.0000      -8.028172      -218.4577
  24   2.0000      -1.334657       -36.3179
  25   2.0000      -1.203634       -32.7525
  26   2.0000      -1.184129       -32.2218
  27   2.0000      -1.154811       -31.4240
  28   2.0000      -1.118542       -30.4371
  29   2.0000      -1.069482       -29.1021
  30   2.0000      -1.012583       -27.5538
  31   2.0000      -1.011614       -27.5274
  32   2.0000      -0.995016       -27.0758
  33   2.0000      -0.983236       -26.7552
  34   2.0000      -0.933346       -25.3976
  35   2.0000      -0.926413       -25.2090
  36   2.0000      -0.854961       -23.2647
  37   2.0000      -0.831354       -22.6223
  38   2.0000      -0.827273       -22.5112
  39   2.0000      -0.809667       -22.0322
  40   2.0000      -0.794446       -21.6180
  41   2.0000      -0.760469       -20.6934
  42   2.0000      -0.708614       -19.2824
  43   2.0000      -0.699523       -19.0350
  44   2.0000      -0.695969       -18.9383
  45   2.0000      -0.660427       -17.9711
  46   2.0000      -0.651641       -17.7321
  47   2.0000      -0.640912       -17.4401
  48   2.0000      -0.634339       -17.2612
  49   2.0000      -0.632374       -17.2078
  50   2.0000      -0.615573       -16.7506
  51   2.0000      -0.613121       -16.6839
  52   2.0000      -0.602393       -16.3920
  53   2.0000      -0.593605       -16.1528
  54   2.0000      -0.589328       -16.0364
  55   2.0000      -0.585739       -15.9388
  56   2.0000      -0.553387       -15.0584
  57   2.0000      -0.546087       -14.8598
  58   2.0000      -0.542170       -14.7532
  59   2.0000      -0.541081       -14.7236
  60   2.0000      -0.532092       -14.4790
  61   2.0000      -0.520960       -14.1760
  62   2.0000      -0.512220       -13.9382
  63   2.0000      -0.508753       -13.8439
  64   2.0000      -0.505548       -13.7567
  65   2.0000      -0.497576       -13.5397
  66   2.0000      -0.495254       -13.4765
  67   2.0000      -0.488604       -13.2956
  68   2.0000      -0.478223       -13.0131
  69   2.0000      -0.455977       -12.4078
  70   2.0000      -0.449728       -12.2377
  71   2.0000      -0.432843       -11.7783
  72   2.0000      -0.358049        -9.7430
  73   2.0000      -0.353304        -9.6139
  74   2.0000      -0.346852        -9.4383
  75   2.0000      -0.334295        -9.0966
  76   2.0000      -0.325147        -8.8477
  77   0.0000       0.106786         2.9058
  78   0.0000       0.113403         3.0859
  79   0.0000       0.125706         3.4206
  80   0.0000       0.138011         3.7555
  81   0.0000       0.170908         4.6506

MULLIKEN ATOMIC CHARGES
-----------------------
   0 C :    0.161748
   1 N :   -0.649630
   2 C :    0.153793
   3 C :    0.207015
   4 C :    0.238539
   5 O :   -0.462894
   6 C :    0.065831
   7 C :   -0.138173
   8 C :   -0.061851
   9 C :   -0.020778
  10 C :   -0.039773
  11 C :   -0.028087
  12 C :   -0.010666
  13 C :   -0.116917
  14 C :   -0.002022
  15 C :   -0.029679
  16 C :   -0.021653
  17 C :    0.038205
  18 Cl:   -0.139116
  19 C :    0.013784
  20 H :    0.006321
  21 H :    0.017208
  22 H :    0.043154
  23 H :    0.001917
  24 H :    0.031597
  25 H :    0.030797
  26 H :    0.039582
  27 H :    0.024318
  28 H :    0.016712
  29 H :    0.208571
  30 H :    0.047894
  31 H :    0.041512
  32 H :    0.043405
  33 H :    0.043753
  34 H :    0.043739
  35 H :    0.035401
  36 H :    0.041906
  37 H :    0.046985
  38 H :    0.045080
  39 H :    0.032471
Sum of atomic charges:    0.0000000

LOEWDIN ATOMIC CHARGES
----------------------
   0 C :    0.053798
   1 N :   -0.209088
   2 C :    0.055949
   3 C :    0.065762
   4 C :    0.118274
   5 O :   -0.196166
   6 C :   -0.009189
   7 C :   -0.026420
   8 C :   -0.040750
   9 C :   -0.017034
  10 C :   -0.028951
  11 C :   -0.016153
  12 C :   -0.020916
  13 C :   -0.006061
  14 C :   -0.018506
  15 C :   -0.013943
  16 C :   -0.045630
  17 C :   -0.110379
  18 Cl:    0.091826
  19 C :   -0.040086
  20 H :   -0.004259
  21 H :    0.007245
  22 H :    0.010544
  23 H :   -0.007202
  24 H :    0.012337
  25 H :    0.012103
  26 H :    0.017252
  27 H :    0.003178
  28 H :    0.000807
  29 H :    0.078906
  30 H :    0.031730
  31 H :    0.023146
  32 H :    0.028662
  33 H :    0.027541
  34 H :    0.028760
  35 H :    0.026305
  36 H :    0.029057
  37 H :    0.030938
  38 H :    0.030990
  39 H :    0.025621

  Mayer bond orders larger than 0.100000
B(  0-C ,  1-N ) :   0.9311 B(  0-C , 20-H ) :   0.9782 B(  0-C , 21-H ) :   0.9888
B(  0-C , 22-H ) :   0.9878 B(  1-N ,  2-C ) :   0.9487 B(  1-N ,  3-C ) :   0.9436
B(  2-C , 23-H ) :   0.9765 B(  2-C , 24-H ) :   0.9909 B(  2-C , 25-H ) :   0.9921
B(  3-C ,  4-C ) :   1.0478 B(  3-C , 26-H ) :   0.9668 B(  3-C , 27-H ) :   0.9679
B(  4-C ,  5-O ) :   0.9344 B(  4-C ,  6-C ) :   0.9990 B(  4-C , 28-H ) :   0.9561
B(  5-O , 29-H ) :   0.9603 B(  6-C ,  7-C ) :   0.9719 B(  6-C , 13-C ) :   0.9661
B(  6-C , 30-H ) :   0.9568 B(  7-C ,  8-C ) :   1.4063 B(  7-C , 12-C ) :   1.4229
B(  8-C ,  9-C ) :   1.4237 B(  8-C , 31-H ) :   1.0027 B(  9-C , 10-C ) :   1.4200
B(  9-C , 32-H ) :   0.9989 B( 10-C , 11-C ) :   1.4066 B( 10-C , 33-H ) :   0.9997
B( 11-C , 12-C ) :   1.4341 B( 11-C , 34-H ) :   0.9988 B( 12-C , 35-H ) :   1.0006
B( 13-C , 14-C ) :   1.4368 B( 13-C , 19-C ) :   1.3892 B( 14-C , 15-C ) :   1.4183
B( 14-C , 36-H ) :   0.9980 B( 15-C , 16-C ) :   1.4133 B( 15-C , 37-H ) :   0.9979
B( 16-C , 17-C ) :   1.4093 B( 16-C , 38-H ) :   1.0022 B( 17-C , 18-Cl) :   0.9513
B( 17-C , 19-C ) :   1.4228 B( 19-C , 39-H ) :   1.0005

FINAL SINGLE POINT ENERGY     -1243.465967002727

DIPOLE MOMENT
-------------
                                X             Y             Z
Electronic contribution:    -24.14995      11.71659      -8.56986
Nuclear contribution   :     24.15206     -11.86134       9.11791
                        -----------------------------------------
Total Dipole Moment    :      0.00211      -0.14475       0.54806
                        -----------------------------------------
Magnitude (a.u.)       :      0.56685
Magnitude (Debye)      :      1.44083

Rotational constants in cm-1:     0.009568     0.008989     0.005656
Rotational constants in MHz :   286.849425   269.473094   169.559805

                             ****ORCA TERMINATED NORMALLY****
TOTAL RUN TIME: 0 days 0 hours 0 minutes 24 seconds 795 msec
