                         Program Version 5.0.3 -  RELEASE  -
|  1> !RHF def2-SVP TightSCF PAL16
|  2> *xyz 0 1
|  3> C 4.298495670099828 0.8593365446269878 1.2253888539170275
|  4> C 3.220687871625839 -0.2175005384053165 1.2339306043212248
|  5> C 2.6692411583135316 -0.5464585247755146 -0.16762538628738283
|  6> C 3.763599459562148 -1.1148164235038776 -1.0799381740071683
|  7> N 1.5995817583224579 -1.5522566665757964 -0.07264516200072359
|  8> C 0.293449859485436 -1.0042790819271012 0.34765741717395404
|  9> C -0.46055877890681673 -0.25635343579224484 -0.7816569571816309
| 10> O -0.5387690276167816 -1.0966825039648693 -1.9418836212507105
| 11> C -1.850097122399945 0.17549774234919355 -0.3617898279138489
| 12> C -2.87051205319474 -0.7643875870590853 -0.15937174963696746
| 13> C -4.150568695676005 -0.35474596029271477 0.22594488247393754
| 14> C -4.428557438858777 0.9925485991847519 0.46044012432520615
| 15> N -5.737909135961855 1.4071334810926477 0.7283239257706926
| 16> C -3.4302767962177523 1.9339521793866032 0.20378231142796202
| 17> C -2.147087218424625 1.5322136043416577 -0.18222390434176539
| 18> H 5.209938184582979 0.5140504771902835 0.7291850734173009
| 19> H 4.566444229961713 1.128400027351669 2.2523758407202688
| 20> H 3.9463666655072718 1.7638524835255849 0.719651730012545
| 21> H 3.626604411186858 -1.1226399735599775 1.7032876491290692
| 22> H 2.411970527592121 0.13551725696066982 1.8836584987696565
| 23> H 2.295286824195008 0.36900119137192927 -0.6398394042634389
| 24> H 4.548186902419626 -0.3750352953619195 -1.2667726135169046
| 25> H 3.3549727357208496 -1.394388437348036 -2.0580494128884417
| 26> H 4.23088383772892 -2.003915807853746 -0.6418605617879952
| 27> H 1.4383017516296273 -1.9624511779966214 -0.9991432560264663
| 28> H 0.38228510766223645 -0.3734984459584731 1.2384009221035412
| 29> H -0.30255421164354956 -1.8736869871719637 0.6519458454020912
| 30> H 0.11271578695847108 0.6265561765240681 -1.0851390505934744
| 31> H -1.3134477038544872 -0.8021214176569221 -2.4520444173322766
| 32> H -2.6785038336524734 -1.8247536376015256 -0.31517238012523086
| 33> H -4.930223424299086 -1.1028199491801511 0.3433834282488976
| 34> H -5.79643167583166 2.312144359266985 1.1842779340645078
| 35> H -6.302110580009696 0.7042765524502475 1.1956410483966269
| 36> H -3.6428210439068933 2.9951964088060046 0.30384050919783817
| 37> H -1.3885840020996307 2.2931147675564416 -0.3531191060965803
| 38> *
| 39>
| 40>                          ****END OF INPUT****

CARTESIAN COORDINATES (ANGSTROEM)
---------------------------------
  C      4.298496    0.859337    1.225389
  C      3.220688   -0.217501    1.233931
  C      2.669241   -0.546459   -0.167625
  C      3.763599   -1.114816   -1.079938
  N      1.599582   -1.552257   -0.072645
  C      0.293450   -1.004279    0.347657
  C     -0.460559   -0.256353   -0.781657
  O     -0.538769   -1.096683   -1.941884
  C     -1.850097    0.175498   -0.361790
  C     -2.870512   -0.764388   -0.159372
  C     -4.150569   -0.354746    0.225945
  C     -4.428557    0.992549    0.460440
  N     -5.737909    1.407133    0.728324
  C     -3.430277    1.933952    0.203782
  C     -2.147087    1.532214   -0.182224
  H      5.209938    0.514050    0.729185
  H      4.566444    1.128400    2.252376
  H      3.946367    1.763852    0.719652
  H      3.626604   -1.122640    1.703288
  H      2.411971    0.135517    1.883658
  H      2.295287    0.369001   -0.639839
  H      4.548187   -0.375035   -1.266773
  H      3.354973   -1.394388   -2.058049
  H      4.230884   -2.003916   -0.641861
  H      1.438302   -1.962451   -0.999143
  H      0.382285   -0.373498    1.238401
  H     -0.302554   -1.873687    0.651946
  H      0.112716    0.626556   -1.085139
  H     -1.313448   -0.802121   -2.452044
  H     -2.678504   -1.824754   -0.315172
  H     -4.930223   -1.102820    0.343383
  H     -5.796432    2.312144    1.184278
  H     -6.302111    0.704277    1.195641
  H     -3.642821    2.995196    0.303841
  H     -1.388584    2.293115   -0.353119

 Total Charge           Charge          ....    0
 Multiplicity           Mult            ....    1
 Number of Electrons    NEL             ....  114
 Basis Dimension        Dim             ....  310

ORBITAL ENERGIES
----------------

  NO   OCC          E(Eh)            E(eV)
   0   2.0000     -20.545266      -559.0651
   1   2.0000     -15.569220      -423.6600
   2   2.0000     -15.524097      -422.4321
   3   2.0000     -11.283129      -307.0295
   4   2.0000     -11.280248      -306.9512
   5   2.0000     -11.247160      -306.0508
   6   2.0000     -11.246003      -306.0193
   7   2.0000     -11.244719      -305.9844
   8   2.0000     -11.243827      -305.9601
   9   2.0000     -11.234621      -305.7096
  10   2.0000     -11.233955      -305.6914
  11   2.0000     -11.232449      -305.6505
  12   2.0000     -11.213322      -305.1300
  13   2.0000     -11.211580      -305.0826
  14   2.0000     -11.211338      -305.0760
  15   2.0000      -1.336065       -36.3562
  16   2.0000      -1.215140       -33.0656
  17   2.0000      -1.179803       -32.1041
  18   2.0000      -1.126443       -30.6521
  19   2.0000      -1.041887       -28.3512
  20   2.0000      -1.011052       -27.5121
  21   2.0000      -1.007431       -27.4136
  22   2.0000      -0.965500       -26.2726
  23   2.0000      -0.920794       -25.0561
  24   2.0000      -0.855866       -23.2893
  25   2.0000      -0.840198       -22.8630
  26   2.0000      -0.826456       -22.4890
  27   2.0000      -0.788167       -21.4471
  28   2.0000      -0.753209       -20.4959
  29   2.0000      -0.713137       -19.4054
  30   2.0000      -0.699650       -19.0384
  31   2.0000      -0.681396       -18.5417
  32   2.0000      -0.653516       -17.7831
  33   2.0000      -0.633471       -17.2376
  34   2.0000      -0.619891       -16.8681
  35   2.0000      -0.618307       -16.8250
  36   2.0000      -0.612450       -16.6656
  37   2.0000      -0.597422       -16.2567
  38   2.0000      -0.586369       -15.9559
  39   2.0000      -0.576016       -15.6742
  40   2.0000      -0.573807       -15.6141
  41   2.0000      -0.556049       -15.1309
  42   2.0000      -0.535620       -14.5750
  43   2.0000      -0.533636       -14.5210
  44   2.0000      -0.520786       -14.1713
  45   2.0000      -0.512709       -13.9515
  46   2.0000      -0.500744       -13.6259
  47   2.0000      -0.498207       -13.5569
  48   2.0000      -0.488327       -13.2880
  49   2.0000      -0.473912       -12.8958
  50   2.0000      -0.461979       -12.5711
  51   2.0000      -0.454937       -12.3795
  52   2.0000      -0.447302       -12.1717
  53   2.0000      -0.439257       -11.9528
  54   2.0000      -0.358029        -9.7425
  55   2.0000      -0.343948        -9.3593
  56   2.0000      -0.298084        -8.1113
  57   0.0000       0.122350         3.3293
  58   0.0000       0.141362         3.8467
  59   0.0000       0.175634         4.7792
  60   0.0000       0.176141         4.7930
  61   0.0000       0.194106         5.2819

MULLIKEN ATOMIC CHARGES
-----------------------
   0 C :   -0.040376
   1 C :   -0.034827
   2 C :   -0.007624
   3 C :    0.000092
   4 N :   -0.465501
   5 C :    0.206598
   6 C :    0.299952
   7 O :   -0.470520
   8 C :   -0.260222
   9 C :    0.016680
  10 C :   -0.085855
  11 C :    0.134701
  12 N :   -0.265866
  13 C :   -0.088380
  14 C :    0.014572
  15 H :    0.031465
  16 H :    0.029780
  17 H :    0.020990
  18 H :    0.032227
  19 H :    0.022177
  20 H :    0.005298
  21 H :    0.027461
  22 H :    0.029925
  23 H :    0.035324
  24 H :    0.143081
  25 H :    0.028887
  26 H :    0.024845
  27 H :    0.012949
  28 H :    0.202554
  29 H :    0.048581
  30 H :    0.024198
  31 H :    0.135714
  32 H :    0.135803
  33 H :    0.022042
  34 H :    0.033273
Sum of atomic charges:    0.0000000

LOEWDIN ATOMIC CHARGES
----------------------
   0 C :   -0.037798
   1 C :   -0.023497
   2 C :    0.039884
   3 C :   -0.032886
   4 N :   -0.158917
   5 C :    0.057817
   6 C :    0.103405
   7 O :   -0.204869
   8 C :   -0.093595
   9 C :    0.005643
  10 C :   -0.069308
  11 C :    0.053890
  12 N :   -0.082404
  13 C :   -0.072572
  14 C :    0.000181
  15 H :    0.012770
  16 H :    0.016311
  17 H :    0.011751
  18 H :    0.016389
  19 H :    0.008832
  20 H :   -0.010933
  21 H :    0.014568
  22 H :    0.015333
  23 H :    0.018731
  24 H :    0.057638
  25 H :    0.014408
  26 H :    0.013196
  27 H :   -0.000067
  28 H :    0.084977
  29 H :    0.030319
  30 H :    0.022939
  31 H :    0.069631
  32 H :    0.069731
  33 H :    0.022096
  34 H :    0.026410

  Mayer bond orders larger than 0.100000
B(  0-C ,  1-C ) :   1.0347 B(  0-C , 15-H ) :   0.9851 B(  0-C , 16-H ) :   0.9869
B(  0-C , 17-H ) :   0.9829 B(  1-C ,  2-C ) :   1.0113 B(  1-C , 18-H ) :   0.9663
B(  1-C , 19-H ) :   0.9744 B(  2-C ,  3-C ) :   1.0263 B(  2-C ,  4-N ) :   0.9559
B(  2-C , 20-H ) :   0.9597 B(  3-C , 21-H ) :   0.9853 B(  3-C , 22-H ) :   0.9856
B(  3-C , 23-H ) :   0.9803 B(  4-N ,  5-C ) :   0.9963 B(  4-N , 24-H ) :   0.9500
B(  5-C ,  6-C ) :   1.0080 B(  5-C , 25-H ) :   0.9731 B(  5-C , 26-H ) :   0.9699
B(  6-C ,  7-O ) :   0.9056 B(  6-C ,  8-C ) :   1.0013 B(  6-C , 27-H ) :   0.9661
B(  7-O , 28-H ) :   0.9647 B(  8-C ,  9-C ) :   1.3833 B(  8-C , 14-C ) :   1.4241
B(  9-C , 10-C ) :   1.4543 B(  9-C , 29-H ) :   0.9999 B( 10-C , 11-C ) :   1.3537
B( 10-C , 30-H ) :   1.0048 B( 11-C , 12-N ) :   1.1110 B( 11-C , 13-C ) :   1.3663
B( 12-N , 31-H ) :   0.9606 B( 12-N , 32-H ) :   0.9607 B( 13-C , 14-C ) :   1.4394
B( 13-C , 33-H ) :   1.0027 B( 14-C , 34-H ) :   0.9997

FINAL SINGLE POINT ENERGY      -649.333302585934

DIPOLE MOMENT
-------------
                                X             Y             Z
Electronic contribution:    -20.77009       0.44674      -2.52253
Nuclear contribution   :     19.76927       0.41674       2.93263
                        -----------------------------------------
Total Dipole Moment    :     -1.00083       0.86347       0.41010
                        -----------------------------------------
Magnitude (a.u.)       :      1.38399
Magnitude (Debye)      :      3.51782

Rotational constants in cm-1:     0.045882     0.007536     0.006975
Rotational constants in MHz :  1375.501944   225.930047   209.100778

                             ****ORCA TERMINATED NORMALLY****
TOTAL RUN TIME: 0 days 0 hours 0 minutes 12 seconds 396 msec
