                         Program Version 5.0.3 -  RELEASE  -
|  1> !RHF def2-SVP TightSCF PAL16
|  2> *xyz 0 1
|  3> C -2.9717808245936808 2.562432173975645 -0.7075032966619352
|  4> C -3.2818223960137476 1.0790973397663648 -0.9683177909121842
|  5> C -4.60372383534748 1.0059197823240522 -1.7719921642496763
|  6> C -2.191027207028874 0.4472006056892889 -1.846939664568947
|  7> N -3.5241919616658763 0.29836786475206295 0.26506187572032763
|  8> C -2.597309359098386 0.45810563095403867 1.4021330769375633
|  9> C -1.1641797285424196 -0.07568075412564365 1.2165289043850085
| 10> O -0.30240680803283715 0.994618036243561 0.803544997238467
| 11> C -0.6159621013193195 -0.6480739939418481 2.5389944576121786
| 12> O 0.7624507347647255 -1.0564548726990783 2.433408534897153
| 13> C 0.9141649526348584 -2.2066674691227437 1.7035160675149816
| 14> C 0.5569479966731604 -3.43983711591655 2.249582653237074
| 15> C 0.7377521087810535 -4.602073677516658 1.5011335112311792
| 16> C 1.2760468569407215 -4.527755190640573 0.21706295177827198
| 17> C 1.6613394541837851 -3.294207734839412 -0.3171608135919527
| 18> C 1.5071289480210863 -2.1304639661820612 0.43540995631611223
| 19> O 1.8388767975590703 -0.8803355424880416 -0.023007212763648945
| 20> C 3.0600623979506665 -0.8233763584957408 -0.7722999191049464
| 21> C 3.5723466185025043 0.6196972453642045 -0.8187391817476086
| 22> C 3.718208567541845 1.2915700769190952 0.5394848807104251
| 23> C 3.5640047090192843 2.748695709852503 0.18008620864115124
| 24> C 2.5005383741113367 2.6942857077432514 -0.8947361340722121
| 25> O 2.680072228522805 1.4516302652755164 -1.5902846820632983
| 26> H -2.9530315747503875 3.1280449769802896 -1.647461307751948
| 27> H -3.7340432640369094 3.020937350621223 -0.066763520660537
| 28> H -1.9982371215040122 2.705964618665489 -0.22815690916156955
| 29> H -4.88457706372868 -0.032327093594175876 -1.9919342363882415
| 30> H -4.515247418546064 1.530308739643565 -2.7293642846598605
| 31> H -5.432358506679307 1.4675777467704485 -1.2253065126639953
| 32> H -2.191891634214766 0.8893888264605934 -2.8524640310030267
| 33> H -1.1854942655898846 0.5975145217922694 -1.4458248258452042
| 34> H -2.352693353460847 -0.6320036750404903 -1.9669450062605192
| 35> H -4.456572987074835 0.5357990029730784 0.6089728961421774
| 36> H -2.5805611625768976 1.502937362445166 1.7354551113403376
| 37> H -3.0637409717474187 -0.11079752647857218 2.2160670780217386
| 38> H -1.1453318970007258 -0.8497327934511729 0.44116980990673593
| 39> H 0.5436404251636817 0.5587446863048288 0.5708865337710738
| 40> H -0.6290653286429746 0.1382046061573543 3.3036939783456
| 41> H -1.2427335834110997 -1.4689895746058412 2.911314646386103
| 42> H 0.15028794911353646 -3.4988910175279404 3.254759686078656
| 43> H 0.45406587082649236 -5.566004622547515 1.9171319323741522
| 44> H 1.3958182726766126 -5.433427400240906 -0.37213497808253854
| 45> H 2.0529941976932053 -3.2605448873359326 -1.3274599476181617
| 46> H 2.8607867945207595 -1.163786374155329 -1.7953087815181612
| 47> H 3.8259091742969993 -1.457735707061749 -0.30641508315636246
| 48> H 4.53513200054426 0.6357059342586234 -1.3456921348259046
| 49> H 4.673440381357348 1.064011370551015 1.0198473398691004
| 50> H 2.9176226682177857 1.0012485887476192 1.2283176216817526
| 51> H 4.50310055854319 3.1276959897548178 -0.23975244471340734
| 52> H 3.2851979291308018 3.3830433988269952 1.0255483140867452
| 53> H 2.574424838508959 3.5261856834178134 -1.6014964428787102
| 54> H 1.4956225487928796 2.6942335047719888 -0.46129366707085145
| 55> *
| 56>
| 57>                          ****END OF INPUT****

CARTESIAN COORDINATES (ANGSTROEM)
---------------------------------
  C     -2.971781    2.562432   -0.707503
  C     -3.281822    1.079097   -0.968318
  C     -4.603724    1.005920   -1.771992
  C     -2.191027    0.447201   -1.846940
  N     -3.524192    0.298368    0.265062
  C     -2.597309    0.458106    1.402133
  C     -1.164180   -0.075681    1.216529
  O     -0.302407    0.994618    0.803545
  C     -0.615962   -0.648074    2.538994
  O      0.762451   -1.056455    2.433409
  C      0.914165   -2.206667    1.703516
  C      0.556948   -3.439837    2.249583
  C      0.737752   -4.602074    1.501134
  C      1.276047   -4.527755    0.217063
  C      1.661339   -3.294208   -0.317161
  C      1.507129   -2.130464    0.435410
  O      1.838877   -0.880336   -0.023007
  C      3.060062   -0.823376   -0.772300
  C      3.572347    0.619697   -0.818739
  C      3.718209    1.291570    0.539485
  C      3.564005    2.748696    0.180086
  C      2.500538    2.694286   -0.894736
  O      2.680072    1.451630   -1.590285
  H     -2.953032    3.128045   -1.647461
  H     -3.734043    3.020937   -0.066764
  H     -1.998237    2.705965   -0.228157
  H     -4.884577   -0.032327   -1.991934
  H     -4.515247    1.530309   -2.729364
  H     -5.432359    1.467578   -1.225307
  H     -2.191892    0.889389   -2.852464
  H     -1.185494    0.597515   -1.445825
  H     -2.352693   -0.632004   -1.966945
  H     -4.456573    0.535799    0.608973
  H     -2.580561    1.502937    1.735455
  H     -3.063741   -0.110798    2.216067
  H     -1.145332   -0.849733    0.441170
  H      0.543640    0.558745    0.570887
  H     -0.629065    0.138205    3.303694
  H     -1.242734   -1.468990    2.911315
  H      0.150288   -3.498891    3.254760
  H      0.454066   -5.566005    1.917132
  H      1.395818   -5.433427   -0.372135
  H      2.052994   -3.260545   -1.327460
  H      2.860787   -1.163786   -1.795309
  H      3.825909   -1.457736   -0.306415
  H      4.535132    0.635706   -1.345692
  H      4.673440    1.064011    1.019847
  H      2.917623    1.001249    1.228318
  H      4.503101    3.127696   -0.239752
  H      3.285198    3.383043    1.025548
  H      2.574425    3.526186   -1.601496
  H      1.495623    2.694234   -0.461294

 Total Charge           Charge          ....    0
 Multiplicity           Mult            ....    1
 Number of Electrons    NEL             ....  176
 Basis Dimension        Dim             ....  467

ORBITAL ENERGIES
----------------

  NO   OCC          E(Eh)            E(eV)
   0   2.0000     -20.587540      -560.2154
   1   2.0000     -20.570359      -559.7479
   2   2.0000     -20.538059      -558.8690
   3   2.0000     -20.530137      -558.6534
   4   2.0000     -15.528705      -422.5576
   5   2.0000     -11.306885      -307.6760
   6   2.0000     -11.298160      -307.4386
   7   2.0000     -11.297796      -307.4287
   8   2.0000     -11.286089      -307.1101
   9   2.0000     -11.285332      -307.0895
  10   2.0000     -11.274408      -306.7922
  11   2.0000     -11.266173      -306.5682
  12   2.0000     -11.248608      -306.0902
  13   2.0000     -11.248426      -306.0852
  14   2.0000     -11.247839      -306.0693
  15   2.0000     -11.247192      -306.0516
  16   2.0000     -11.246763      -306.0400
  17   2.0000     -11.244096      -305.9674
  18   2.0000     -11.224788      -305.4420
  19   2.0000     -11.223890      -305.4176
  20   2.0000     -11.208088      -304.9876
  21   2.0000     -11.200504      -304.7812
  22   2.0000     -11.196114      -304.6617
  23   2.0000      -1.408457       -38.3261
  24   2.0000      -1.380088       -37.5541
  25   2.0000      -1.348622       -36.6979
  26   2.0000      -1.318159       -35.8689
  27   2.0000      -1.182962       -32.1900
  28   2.0000      -1.144132       -31.1334
  29   2.0000      -1.061963       -28.8975
  30   2.0000      -1.042859       -28.3776
  31   2.0000      -1.035584       -28.1797
  32   2.0000      -1.016766       -27.6676
  33   2.0000      -0.999063       -27.1859
  34   2.0000      -0.979269       -26.6473
  35   2.0000      -0.916002       -24.9257
  36   2.0000      -0.911591       -24.8057
  37   2.0000      -0.905729       -24.6461
  38   2.0000      -0.888691       -24.1825
  39   2.0000      -0.838542       -22.8179
  40   2.0000      -0.818784       -22.2803
  41   2.0000      -0.802645       -21.8411
  42   2.0000      -0.792036       -21.5524
  43   2.0000      -0.776652       -21.1338
  44   2.0000      -0.732963       -19.9449
  45   2.0000      -0.729556       -19.8522
  46   2.0000      -0.704042       -19.1579
  47   2.0000      -0.696366       -18.9491
  48   2.0000      -0.685534       -18.6543
  49   2.0000      -0.676300       -18.4031
  50   2.0000      -0.668762       -18.1979
  51   2.0000      -0.658404       -17.9161
  52   2.0000      -0.645161       -17.5557
  53   2.0000      -0.638126       -17.3643
  54   2.0000      -0.632083       -17.1999
  55   2.0000      -0.616924       -16.7874
  56   2.0000      -0.613809       -16.7026
  57   2.0000      -0.606233       -16.4965
  58   2.0000      -0.597970       -16.2716
  59   2.0000      -0.593744       -16.1566
  60   2.0000      -0.588202       -16.0058
  61   2.0000      -0.575571       -15.6621
  62   2.0000      -0.564129       -15.3507
  63   2.0000      -0.562859       -15.3162
  64   2.0000      -0.549741       -14.9592
  65   2.0000      -0.538429       -14.6514
  66   2.0000      -0.534549       -14.5458
  67   2.0000      -0.528051       -14.3690
  68   2.0000      -0.520485       -14.1631
  69   2.0000      -0.519279       -14.1303
  70   2.0000      -0.510933       -13.9032
  71   2.0000      -0.506668       -13.7871
  72   2.0000      -0.499885       -13.6026
  73   2.0000      -0.495253       -13.4765
  74   2.0000      -0.490638       -13.3509
  75   2.0000      -0.488915       -13.3041
  76   2.0000      -0.478547       -13.0219
  77   2.0000      -0.475851       -12.9486
  78   2.0000      -0.471677       -12.8350
  79   2.0000      -0.461043       -12.5456
  80   2.0000      -0.459815       -12.5122
  81   2.0000      -0.455170       -12.3858
  82   2.0000      -0.438428       -11.9302
  83   2.0000      -0.421723       -11.4757
  84   2.0000      -0.410024       -11.1573
  85   2.0000      -0.356161        -9.6916
  86   2.0000      -0.343883        -9.3575
  87   2.0000      -0.323332        -8.7983
  88   0.0000       0.121244         3.2992
  89   0.0000       0.136290         3.7087
  90   0.0000       0.171759         4.6738
  91   0.0000       0.177053         4.8179
  92   0.0000       0.180128         4.9015

MULLIKEN ATOMIC CHARGES
-----------------------
   0 C :    0.033470
   1 C :   -0.247847
   2 C :    0.042224
   3 C :    0.043230
   4 N :   -0.453429
   5 C :    0.202555
   6 C :    0.093902
   7 O :   -0.500163
   8 C :    0.328100
   9 O :   -0.576891
  10 C :    0.201958
  11 C :   -0.045211
  12 C :   -0.033152
  13 C :   -0.015420
  14 C :   -0.101156
  15 C :    0.294936
  16 O :   -0.614009
  17 C :    0.327735
  18 C :    0.182346
  19 C :   -0.087053
  20 C :   -0.110851
  21 C :    0.297412
  22 O :   -0.628796
  23 H :    0.020058
  24 H :    0.009243
  25 H :    0.063284
  26 H :    0.035405
  27 H :    0.024941
  28 H :    0.013265
  29 H :    0.017236
  30 H :    0.053477
  31 H :    0.027596
  32 H :    0.123410
  33 H :    0.026658
  34 H :    0.014388
  35 H :    0.053243
  36 H :    0.267157
  37 H :    0.038100
  38 H :    0.024973
  39 H :    0.043790
  40 H :    0.043454
  41 H :    0.044577
  42 H :    0.044095
  43 H :    0.047496
  44 H :    0.034675
  45 H :    0.023680
  46 H :    0.043471
  47 H :    0.069630
  48 H :    0.035392
  49 H :    0.050452
  50 H :    0.027073
  51 H :    0.045895
Sum of atomic charges:    0.0000000

LOEWDIN ATOMIC CHARGES
----------------------
   0 C :   -0.038690
   1 C :    0.007808
   2 C :   -0.026166
   3 C :   -0.030659
   4 N :   -0.158013
   5 C :    0.059281
   6 C :    0.088540
   7 O :   -0.202157
   8 C :    0.129835
   9 O :   -0.207304
  10 C :    0.048998
  11 C :   -0.031242
  12 C :   -0.033090
  13 C :   -0.023888
  14 C :   -0.051581
  15 C :    0.064332
  16 O :   -0.193537
  17 C :    0.138867
  18 C :    0.105021
  19 C :   -0.028484
  20 C :   -0.033186
  21 C :    0.133476
  22 O :   -0.279000
  23 H :    0.015084
  24 H :    0.007095
  25 H :    0.020779
  26 H :    0.016591
  27 H :    0.014418
  28 H :    0.006182
  29 H :    0.013896
  30 H :    0.018511
  31 H :    0.014319
  32 H :    0.052806
  33 H :    0.004064
  34 H :    0.010885
  35 H :    0.009923
  36 H :    0.073622
  37 H :    0.018879
  38 H :    0.004027
  39 H :    0.033345
  40 H :    0.028196
  41 H :    0.029098
  42 H :    0.031370
  43 H :    0.015121
  44 H :    0.013947
  45 H :    0.008834
  46 H :    0.019387
  47 H :    0.025530
  48 H :    0.014550
  49 H :    0.023098
  50 H :    0.007911
  51 H :    0.009371

  Mayer bond orders larger than 0.100000
B(  0-C ,  1-C ) :   0.9904 B(  0-C , 23-H ) :   0.9784 B(  0-C , 24-H ) :   0.9781
B(  0-C , 25-H ) :   0.9774 B(  1-C ,  2-C ) :   1.0153 B(  1-C ,  3-C ) :   0.9977
B(  1-C ,  4-N ) :   0.9359 B(  2-C , 26-H ) :   0.9849 B(  2-C , 27-H ) :   0.9857
B(  2-C , 28-H ) :   0.9820 B(  3-C , 29-H ) :   0.9815 B(  3-C , 30-H ) :   0.9754
B(  3-C , 31-H ) :   0.9788 B(  4-N ,  5-C ) :   0.9956 B(  4-N , 32-H ) :   0.9523
B(  5-C ,  6-C ) :   1.0023 B(  5-C , 33-H ) :   0.9577 B(  5-C , 34-H ) :   0.9837
B(  6-C ,  7-O ) :   0.9068 B(  6-C ,  8-C ) :   1.0231 B(  6-C , 35-H ) :   0.9572
B(  7-O , 36-H ) :   0.9115 B(  8-C ,  9-O ) :   0.8456 B(  8-C , 37-H ) :   0.9667
B(  8-C , 38-H ) :   0.9751 B(  9-O , 10-C ) :   0.9676 B( 10-C , 11-C ) :   1.4264
B( 10-C , 15-C ) :   1.3895 B( 11-C , 12-C ) :   1.3886 B( 11-C , 39-H ) :   1.0039
B( 12-C , 13-C ) :   1.4221 B( 12-C , 40-H ) :   0.9983 B( 13-C , 14-C ) :   1.3941
B( 13-C , 41-H ) :   0.9997 B( 14-C , 15-C ) :   1.3826 B( 14-C , 42-H ) :   1.0056
B( 15-C , 16-O ) :   0.9446 B( 16-O , 17-C ) :   0.8426 B( 17-C , 18-C ) :   1.0411
B( 17-C , 43-H ) :   0.9692 B( 17-C , 44-H ) :   0.9647 B( 18-C , 19-C ) :   1.0051
B( 18-C , 22-O ) :   0.8798 B( 18-C , 45-H ) :   0.9589 B( 19-C , 20-C ) :   1.0348
B( 19-C , 46-H ) :   0.9721 B( 19-C , 47-H ) :   0.9709 B( 20-C , 21-C ) :   1.0387
B( 20-C , 48-H ) :   0.9705 B( 20-C , 49-H ) :   0.9770 B( 21-C , 22-O ) :   0.8645
B( 21-C , 50-H ) :   0.9789 B( 21-C , 51-H ) :   0.9762

FINAL SINGLE POINT ENERGY     -1051.574980992400

DIPOLE MOMENT
-------------
                                X             Y             Z
Electronic contribution:     14.81030     -15.36944       8.03758
Nuclear contribution   :    -14.27053      14.77737      -7.58318
                        -----------------------------------------
Total Dipole Moment    :      0.53976      -0.59207       0.45440
                        -----------------------------------------
Magnitude (a.u.)       :      0.92107
Magnitude (Debye)      :      2.34118

Rotational constants in cm-1:     0.008739     0.006646     0.004672
Rotational constants in MHz :   261.997286   199.247246   140.049590

                             ****ORCA TERMINATED NORMALLY****
TOTAL RUN TIME: 0 days 0 hours 0 minutes 36 seconds 506 msec
