                         Program Version 5.0.3 -  RELEASE  -
|  1> !RHF def2-SVP TightSCF PAL16
|  2> *xyz 0 1
|  3> C -1.4905536955755956 1.208169312727351 0.7681063216135621
|  4> C -0.6033558399509185 0.4364336241457781 -0.23415039543230107
|  5> C -1.494393800319926 0.17370376897991138 -1.4631537924254618
|  6> C 0.7720158088215493 1.1296832583669434 -0.5109647304293017
|  7> C 1.4357367101159044 1.097345603809944 0.8940987001204063
|  8> C 1.0074713882368174 -0.28282583641624337 1.447405676992983
|  9> C 0.07909546432763619 -0.8338439361095444 0.3360624305676105
| 10> C -0.806617043359993 -1.9811118532953564 0.7607173666330662
| 11> C 1.0413269165007866 -1.1591878942238263 -0.8211929700488961
| 12> O 1.3386949013799123 -2.2831606067564696 -1.1976970808930356
| 13> C 1.5963619008106897 0.13909578011511398 -1.3656478243102521
| 14> Br 1.3328002565496944 0.31465226671188734 -3.2587262494676525
| 15> H -2.4111309699234336 0.6525573811556508 0.9815272193469253
| 16> H -1.0239903059393392 1.401352033496811 1.736151593220736
| 17> H -1.7771757038076819 2.1796324638358375 0.349109699754886
| 18> H -1.1119843663215345 -0.6002985090665168 -2.1318023335320606
| 19> H -2.4869930350646023 -0.17894632299520047 -1.1574974674463223
| 20> H -1.6372425197932023 1.0936170717053006 -2.0404411737642962
| 21> H 0.7056667091182894 2.1389311237625113 -0.9256103638628088
| 22> H 1.0688801518610913 1.908270045398286 1.5316373844711488
| 23> H 2.5258382166368025 1.1948274562380792 0.8505173162041392
| 24> H 1.8811018247571694 -0.9245946189345483 1.6106014205055783
| 25> H 0.48936729576450433 -0.1721004420824769 2.405948480259998
| 26> H -1.3930302827708223 -2.366600665956064 -0.07985770552719618
| 27> H -0.2076938143826819 -2.814514078167397 1.14418037565527
| 28> H -1.5017414996718015 -1.6776774479567476 1.5497880698554116
| 29> H 2.6715453320008633 0.20659102151094288 -1.1791099680620227
| 30> *
| 31>
| 32>                          ****END OF INPUT****

CARTESIAN COORDINATES (ANGSTROEM)
---------------------------------
  C     -1.490554    1.208169    0.768106
  C     -0.603356    0.436434   -0.234150
  C     -1.494394    0.173704   -1.463154
  C      0.772016    1.129683   -0.510965
  C      1.435737    1.097346    0.894099
  C      1.007471   -0.282826    1.447406
  C      0.079095   -0.833844    0.336062
  C     -0.806617   -1.981112    0.760717
  C      1.041327   -1.159188   -0.821193
  O      1.338695   -2.283161   -1.197697
  C      1.596362    0.139096   -1.365648
  Br     1.332800    0.314652   -3.258726
  H     -2.411131    0.652557    0.981527
  H     -1.023990    1.401352    1.736152
  H     -1.777176    2.179632    0.349110
  H     -1.111984   -0.600299   -2.131802
  H     -2.486993   -0.178946   -1.157497
  H     -1.637243    1.093617   -2.040441
  H      0.705667    2.138931   -0.925610
  H      1.068880    1.908270    1.531637
  H      2.525838    1.194827    0.850517
  H      1.881102   -0.924595    1.610601
  H      0.489367   -0.172100    2.405948
  H     -1.393030   -2.366601   -0.079858
  H     -0.207694   -2.814514    1.144180
  H     -1.501741   -1.677677    1.549788
  H      2.671545    0.206591   -1.179110

 Total Charge           Charge          ....    0
 Multiplicity           Mult            ....    1
 Number of Electrons    NEL             ....  118
 Basis Dimension        Dim             ....  261

ORBITAL ENERGIES
----------------

  NO   OCC          E(Eh)            E(eV)
   0   2.0000    -489.966475    -13332.6656
   1   2.0000     -65.134956     -1772.4123
   2   2.0000     -58.507042     -1592.0576
   3   2.0000     -58.505380     -1592.0123
   4   2.0000     -58.505360     -1592.0118
   5   2.0000     -20.552417      -559.2597
   6   2.0000     -11.341311      -308.6128
   7   2.0000     -11.301593      -307.5320
   8   2.0000     -11.256934      -306.3168
   9   2.0000     -11.256360      -306.3011
  10   2.0000     -11.251934      -306.1807
  11   2.0000     -11.245062      -305.9937
  12   2.0000     -11.243721      -305.9572
  13   2.0000     -11.235785      -305.7413
  14   2.0000     -11.228177      -305.5342
  15   2.0000     -11.228093      -305.5319
  16   2.0000      -9.826615      -267.3958
  17   2.0000      -7.443503      -202.5480
  18   2.0000      -7.434180      -202.2943
  19   2.0000      -7.434088      -202.2918
  20   2.0000      -3.186164       -86.6999
  21   2.0000      -3.181974       -86.5859
  22   2.0000      -3.181883       -86.5834
  23   2.0000      -3.171632       -86.3045
  24   2.0000      -3.171629       -86.3044
  25   2.0000      -1.372389       -37.3446
  26   2.0000      -1.198500       -32.6128
  27   2.0000      -1.079788       -29.3825
  28   2.0000      -1.037251       -28.2250
  29   2.0000      -1.016866       -27.6703
  30   2.0000      -0.965996       -26.2861
  31   2.0000      -0.925127       -25.1740
  32   2.0000      -0.910585       -24.7783
  33   2.0000      -0.867625       -23.6093
  34   2.0000      -0.800574       -21.7847
  35   2.0000      -0.747188       -20.3320
  36   2.0000      -0.712080       -19.3767
  37   2.0000      -0.674924       -18.3656
  38   2.0000      -0.665911       -18.1204
  39   2.0000      -0.651271       -17.7220
  40   2.0000      -0.621906       -16.9229
  41   2.0000      -0.611907       -16.6508
  42   2.0000      -0.581687       -15.8285
  43   2.0000      -0.577210       -15.7067
  44   2.0000      -0.560652       -15.2561
  45   2.0000      -0.550573       -14.9819
  46   2.0000      -0.543716       -14.7953
  47   2.0000      -0.539594       -14.6831
  48   2.0000      -0.533730       -14.5235
  49   2.0000      -0.516177       -14.0459
  50   2.0000      -0.501369       -13.6429
  51   2.0000      -0.497570       -13.5396
  52   2.0000      -0.487081       -13.2541
  53   2.0000      -0.469397       -12.7729
  54   2.0000      -0.463376       -12.6091
  55   2.0000      -0.438942       -11.9442
  56   2.0000      -0.416536       -11.3345
  57   2.0000      -0.397709       -10.8222
  58   2.0000      -0.389340       -10.5945
  59   0.0000       0.110207         2.9989
  60   0.0000       0.156680         4.2635
  61   0.0000       0.175636         4.7793
  62   0.0000       0.195756         5.3268
  63   0.0000       0.196996         5.3605

MULLIKEN ATOMIC CHARGES
-----------------------
   0 C :    0.092560
   1 C :   -0.439839
   2 C :    0.099535
   3 C :   -0.089327
   4 C :    0.049126
   5 C :    0.081081
   6 C :   -0.492479
   7 C :    0.140940
   8 C :    0.391210
   9 O :   -0.349342
  10 C :   -0.103232
  11 Br:   -0.064434
  12 H :    0.038423
  13 H :    0.028200
  14 H :    0.038163
  15 H :    0.051904
  16 H :    0.032353
  17 H :    0.040228
  18 H :    0.046961
  19 H :    0.047456
  20 H :    0.037436
  21 H :    0.050061
  22 H :    0.048767
  23 H :    0.037969
  24 H :    0.046160
  25 H :    0.026013
  26 H :    0.114106
Sum of atomic charges:    0.0000000

LOEWDIN ATOMIC CHARGES
----------------------
   0 C :   -0.016805
   1 C :   -0.050690
   2 C :   -0.025181
   3 C :   -0.017514
   4 C :   -0.008816
   5 C :    0.002111
   6 C :   -0.078132
   7 C :   -0.014078
   8 C :    0.155755
   9 O :   -0.220732
  10 C :   -0.098529
  11 Br:    0.071648
  12 H :    0.019827
  13 H :    0.013478
  14 H :    0.021881
  15 H :    0.013419
  16 H :    0.018581
  17 H :    0.021242
  18 H :    0.013691
  19 H :    0.017832
  20 H :    0.013928
  21 H :    0.020203
  22 H :    0.019294
  23 H :    0.023741
  24 H :    0.027161
  25 H :    0.017669
  26 H :    0.039014

  Mayer bond orders larger than 0.100000
B(  0-C ,  1-C ) :   1.0172 B(  0-C , 12-H ) :   0.9831 B(  0-C , 13-H ) :   0.9830
B(  0-C , 14-H ) :   0.9846 B(  1-C ,  2-C ) :   1.0002 B(  1-C ,  3-C ) :   0.9053
B(  1-C ,  6-C ) :   0.8749 B(  2-C , 15-H ) :   0.9774 B(  2-C , 16-H ) :   0.9816
B(  2-C , 17-H ) :   0.9802 B(  3-C ,  4-C ) :   0.9891 B(  3-C , 10-C ) :   0.9003
B(  3-C , 18-H ) :   0.9692 B(  4-C ,  5-C ) :   1.0299 B(  4-C , 19-H ) :   0.9706
B(  4-C , 20-H ) :   0.9702 B(  5-C ,  6-C ) :   0.9880 B(  5-C , 21-H ) :   0.9664
B(  5-C , 22-H ) :   0.9706 B(  6-C ,  7-C ) :   1.0306 B(  6-C ,  8-C ) :   0.8989
B(  7-C , 23-H ) :   0.9778 B(  7-C , 24-H ) :   0.9783 B(  7-C , 25-H ) :   0.9798
B(  8-C ,  9-O ) :   2.1148 B(  8-C , 10-C ) :   0.8590 B( 10-C , 11-Br) :   1.0771
B( 10-C , 26-H ) :   0.9457

FINAL SINGLE POINT ENERGY     -3034.026518050908

DIPOLE MOMENT
-------------
                                X             Y             Z
Electronic contribution:     18.83375       1.94350     -39.15214
Nuclear contribution   :    -19.25681      -0.82849      40.35555
                        -----------------------------------------
Total Dipole Moment    :     -0.42306       1.11501       1.20341
                        -----------------------------------------
Magnitude (a.u.)       :      1.69423
Magnitude (Debye)      :      4.30640

Rotational constants in cm-1:     0.038043     0.017599     0.016507
Rotational constants in MHz :  1140.505671   527.616531   494.879117

                             ****ORCA TERMINATED NORMALLY****
TOTAL RUN TIME: 0 days 0 hours 0 minutes 13 seconds 708 msec
