                         Program Version 5.0.3 -  RELEASE  -
|  1> !RHF def2-SVP TightSCF PAL16
|  2> *xyz 0 1
|  3> C -3.056694935877488 0.3091909869161513 2.1560948906366115
|  4> C -2.54940497921039 -0.10675356841254274 0.810016103306056
|  5> O -3.1229365307664754 -0.8822551322242046 0.06102253825700801
|  6> O -1.3649313880644984 0.5052315517191189 0.5473559815683025
|  7> C -0.7465634080401706 0.2085373969135822 -0.734520070910262
|  8> C 0.691213707004113 -0.2245049228915781 -0.4379866086594805
|  9> C 1.2656180663864336 -1.2846526301775432 -1.1579620951951737
| 10> C 2.5780355194214817 -1.6940008497865369 -0.9037416987071559
| 11> C 3.3393063594391776 -1.0559696073954365 0.0779109378405013
| 12> Cl 4.9518994504392975 -1.6165604582817739 0.3378215526976662
| 13> C 2.781627674844419 -0.00441308243880115 0.8091846637564761
| 14> Cl 3.6542891840392238 0.8306177176862534 2.044714731017443
| 15> C 1.4668256180435826 0.40538600517795387 0.5518482269552251
| 16> C -0.8945218651639405 1.4117588126800307 -1.723321500455342
| 17> Cl -2.635527106583781 1.763579355993785 -2.044366233667904
| 18> Cl -0.13068230344334666 1.0567535933120338 -3.315555451101171
| 19> Cl -0.16584547476212957 2.926897029882207 -1.0794926186685492
| 20> H -4.005471270193824 -0.19612699093814634 2.3578481512222296
| 21> H -3.2263963968801765 1.3887043888522097 2.170137229939483
| 22> H -2.33815070137244 0.021957140460769825 2.927818389736463
| 23> H -1.2399634148117868 -0.6614939585022065 -1.1883364597284525
| 24> H 0.6986630757916139 -1.8079836355857428 -1.9278637923408863
| 25> H 3.0016402581799504 -2.5161229898715316 -1.4770994770321648
| 26> H 1.0479708615796641 1.222223846912352 1.1384726095337048
| 27> *
| 28>
| 29>                          ****END OF INPUT****

CARTESIAN COORDINATES (ANGSTROEM)
---------------------------------
  C     -3.056695    0.309191    2.156095
  C     -2.549405   -0.106754    0.810016
  O     -3.122937   -0.882255    0.061023
  O     -1.364931    0.505232    0.547356
  C     -0.746563    0.208537   -0.734520
  C      0.691214   -0.224505   -0.437987
  C      1.265618   -1.284653   -1.157962
  C      2.578036   -1.694001   -0.903742
  C      3.339306   -1.055970    0.077911
  Cl     4.951899   -1.616560    0.337822
  C      2.781628   -0.004413    0.809185
  Cl     3.654289    0.830618    2.044715
  C      1.466826    0.405386    0.551848
  C     -0.894522    1.411759   -1.723322
  Cl    -2.635527    1.763579   -2.044366
  Cl    -0.130682    1.056754   -3.315555
  Cl    -0.165845    2.926897   -1.079493
  H     -4.005471   -0.196127    2.357848
  H     -3.226396    1.388704    2.170137
  H     -2.338151    0.021957    2.927818
  H     -1.239963   -0.661494   -1.188336
  H      0.698663   -1.807984   -1.927864
  H      3.001640   -2.516123   -1.477099
  H      1.047971    1.222224    1.138473

 Total Charge           Charge          ....    0
 Multiplicity           Mult            ....    1
 Number of Electrons    NEL             ....  168
 Basis Dimension        Dim             ....  293

ORBITAL ENERGIES
----------------

  NO   OCC          E(Eh)            E(eV)
   0   2.0000    -104.830105     -2852.5722
   1   2.0000    -104.824637     -2852.4234
   2   2.0000    -104.823275     -2852.3863
   3   2.0000    -104.810595     -2852.0413
   4   2.0000    -104.809497     -2852.0114
   5   2.0000     -20.633193      -561.4577
   6   2.0000     -20.561302      -559.5015
   7   2.0000     -11.449136      -311.5468
   8   2.0000     -11.409970      -310.4811
   9   2.0000     -11.363534      -309.2175
  10   2.0000     -11.328736      -308.2706
  11   2.0000     -11.326128      -308.1996
  12   2.0000     -11.285813      -307.1026
  13   2.0000     -11.279324      -306.9260
  14   2.0000     -11.277667      -306.8809
  15   2.0000     -11.275326      -306.8172
  16   2.0000     -11.259801      -306.3948
  17   2.0000     -10.593298      -288.2583
  18   2.0000     -10.587869      -288.1106
  19   2.0000     -10.586506      -288.0735
  20   2.0000     -10.574169      -287.7378
  21   2.0000     -10.573023      -287.7066
  22   2.0000      -8.068189      -219.5466
  23   2.0000      -8.064372      -219.4427
  24   2.0000      -8.064321      -219.4413
  25   2.0000      -8.062782      -219.3995
  26   2.0000      -8.061406      -219.3620
  27   2.0000      -8.058951      -219.2952
  28   2.0000      -8.058932      -219.2947
  29   2.0000      -8.057575      -219.2578
  30   2.0000      -8.057522      -219.2563
  31   2.0000      -8.049286      -219.0322
  32   2.0000      -8.048148      -219.0012
  33   2.0000      -8.045555      -218.9307
  34   2.0000      -8.045530      -218.9300
  35   2.0000      -8.044431      -218.9001
  36   2.0000      -8.044378      -218.8987
  37   2.0000      -1.468296       -39.9544
  38   2.0000      -1.363233       -37.0955
  39   2.0000      -1.243424       -33.8353
  40   2.0000      -1.221743       -33.2453
  41   2.0000      -1.146373       -31.1944
  42   2.0000      -1.139673       -31.0121
  43   2.0000      -1.113425       -30.2978
  44   2.0000      -1.108717       -30.1697
  45   2.0000      -1.066419       -29.0187
  46   2.0000      -1.021811       -27.8049
  47   2.0000      -1.011192       -27.5159
  48   2.0000      -0.964873       -26.2555
  49   2.0000      -0.864815       -23.5328
  50   2.0000      -0.850259       -23.1367
  51   2.0000      -0.818571       -22.2744
  52   2.0000      -0.790098       -21.4997
  53   2.0000      -0.726745       -19.7757
  54   2.0000      -0.711792       -19.3688
  55   2.0000      -0.702658       -19.1203
  56   2.0000      -0.686126       -18.6704
  57   2.0000      -0.676102       -18.3977
  58   2.0000      -0.654085       -17.7986
  59   2.0000      -0.641217       -17.4484
  60   2.0000      -0.628641       -17.1062
  61   2.0000      -0.620280       -16.8787
  62   2.0000      -0.611206       -16.6318
  63   2.0000      -0.597056       -16.2467
  64   2.0000      -0.582147       -15.8410
  65   2.0000      -0.575567       -15.6620
  66   2.0000      -0.569664       -15.5014
  67   2.0000      -0.559901       -15.2357
  68   2.0000      -0.541487       -14.7346
  69   2.0000      -0.535463       -14.5707
  70   2.0000      -0.507535       -13.8107
  71   2.0000      -0.507061       -13.7978
  72   2.0000      -0.499932       -13.6038
  73   2.0000      -0.497562       -13.5393
  74   2.0000      -0.479575       -13.0499
  75   2.0000      -0.476378       -12.9629
  76   2.0000      -0.471837       -12.8393
  77   2.0000      -0.466298       -12.6886
  78   2.0000      -0.462746       -12.5920
  79   2.0000      -0.457058       -12.4372
  80   2.0000      -0.454502       -12.3676
  81   2.0000      -0.450141       -12.2489
  82   2.0000      -0.361210        -9.8290
  83   2.0000      -0.351081        -9.5534
  84   0.0000       0.084427         2.2974
  85   0.0000       0.096439         2.6242
  86   0.0000       0.145270         3.9530
  87   0.0000       0.155607         4.2343
  88   0.0000       0.160041         4.3549

MULLIKEN ATOMIC CHARGES
-----------------------
   0 C :   -0.020254
   1 C :    0.429610
   2 O :   -0.410871
   3 O :   -0.547770
   4 C :    0.429680
   5 C :   -0.189273
   6 C :    0.009544
   7 C :   -0.010302
   8 C :    0.038110
   9 Cl:   -0.094824
  10 C :    0.023216
  11 Cl:   -0.096007
  12 C :    0.070041
  13 C :    0.046996
  14 Cl:   -0.061772
  15 Cl:   -0.061381
  16 Cl:   -0.066157
  17 H :    0.072510
  18 H :    0.077739
  19 H :    0.074862
  20 H :    0.106397
  21 H :    0.054852
  22 H :    0.059691
  23 H :    0.065363
Sum of atomic charges:    0.0000000

LOEWDIN ATOMIC CHARGES
----------------------
   0 C :   -0.044624
   1 C :    0.218776
   2 O :   -0.266482
   3 O :   -0.187524
   4 C :    0.104310
   5 C :   -0.056566
   6 C :   -0.004605
   7 C :   -0.030510
   8 C :   -0.120309
   9 Cl:    0.113970
  10 C :   -0.132368
  11 Cl:    0.111655
  12 C :   -0.005670
  13 C :   -0.205365
  14 Cl:    0.071787
  15 Cl:    0.077329
  16 Cl:    0.073027
  17 H :    0.041352
  18 H :    0.046596
  19 H :    0.045408
  20 H :    0.039949
  21 H :    0.033639
  22 H :    0.039387
  23 H :    0.036841

  Mayer bond orders larger than 0.100000
B(  0-C ,  1-C ) :   0.9937 B(  0-C , 17-H ) :   0.9831 B(  0-C , 18-H ) :   0.9682
B(  0-C , 19-H ) :   0.9670 B(  1-C ,  2-O ) :   1.9631 B(  1-C ,  3-O ) :   1.0103
B(  3-O ,  4-C ) :   0.8278 B(  4-C ,  5-C ) :   0.9930 B(  4-C , 13-C ) :   0.8779
B(  4-C , 20-H ) :   0.9518 B(  5-C ,  6-C ) :   1.4171 B(  5-C , 12-C ) :   1.4014
B(  6-C ,  7-C ) :   1.4390 B(  6-C , 21-H ) :   0.9941 B(  7-C ,  8-C ) :   1.4129
B(  7-C , 22-H ) :   1.0005 B(  8-C ,  9-Cl) :   1.0032 B(  8-C , 10-C ) :   1.4392
B( 10-C , 11-Cl) :   1.0010 B( 10-C , 12-C ) :   1.4261 B( 12-C , 23-H ) :   0.9970
B( 13-C , 14-Cl) :   1.0307 B( 13-C , 15-Cl) :   1.0149 B( 13-C , 16-Cl) :   1.0158

FINAL SINGLE POINT ENERGY     -2828.821084354262

DIPOLE MOMENT
-------------
                                X             Y             Z
Electronic contribution:     12.99944       8.86896      -8.86374
Nuclear contribution   :    -13.30746      -9.00742       9.16138
                        -----------------------------------------
Total Dipole Moment    :     -0.30802      -0.13846       0.29764
                        -----------------------------------------
Magnitude (a.u.)       :      0.45015
Magnitude (Debye)      :      1.14419

Rotational constants in cm-1:     0.014486     0.005517     0.005055
Rotational constants in MHz :   434.292568   165.390178   151.549192

                             ****ORCA TERMINATED NORMALLY****
TOTAL RUN TIME: 0 days 0 hours 0 minutes 11 seconds 21 msec
