                         Program Version 5.0.3 -  RELEASE  -
|  1> !RHF def2-SVP TightSCF PAL16
|  2> *xyz 0 1
|  3> O -0.9772736205743476 -2.9968535697260337 -0.568463115339735
|  4> C -0.5217644589430066 -1.8642184521023788 -0.6389064286183593
|  5> N 0.7324854042813845 -1.6156172272306355 -1.1203484380326967
|  6> C 1.4129548263581377 -0.3799365051483315 -0.8234131911143729
|  7> C 2.072608463944668 -0.4066982135638565 0.5648482434021054
|  8> C 3.0763688389263377 0.7207439580292134 0.785434634149804
|  9> Cl 2.306069405624264 2.2968970117860077 1.0609926813821433
| 10> O 0.5416659023734708 0.7412810916995558 -0.9916513155232819
| 11> C -0.7065845513177114 0.5793353897204734 -0.4545808286685149
| 12> C -1.4234611229287664 1.733826867343624 -0.1472727878706768
| 13> C -2.7041594179316406 1.6315204926150584 0.40116564860449955
| 14> C -3.2727829103046564 0.37629564675529237 0.6307439362840174
| 15> C -2.5635462840212933 -0.7810333620191031 0.30694663442475734
| 16> C -1.2815569407066485 -0.6709263988181158 -0.23686096192011521
| 17> H 1.2708573744202274 -2.443778260100409 -1.336086486664596
| 18> H 2.1948967623188835 -0.28769281141225156 -1.5857408237573836
| 19> H 2.6133162834349166 -1.356433133396612 0.6704904828935374
| 20> H 1.3184660144042857 -0.3892025876665566 1.3610729133681687
| 21> H 3.758803430465162 0.8192914629398003 -0.06430324935869403
| 22> H 3.6772119759054087 0.5078903015079733 1.6750359105637482
| 23> H -0.9825941633249341 2.7114170839942418 -0.32452047778360665
| 24> H -3.2603097066779996 2.532949076070437 0.6477148771594893
| 25> H -4.271944338055509 0.3006472778039461 1.0531294551345156
| 26> H -3.0097271676707624 -1.7597051390810823 0.46692387390752027
| 27> *
| 28>
| 29>                          ****END OF INPUT****

CARTESIAN COORDINATES (ANGSTROEM)
---------------------------------
  O     -0.977274   -2.996854   -0.568463
  C     -0.521764   -1.864218   -0.638906
  N      0.732485   -1.615617   -1.120348
  C      1.412955   -0.379937   -0.823413
  C      2.072608   -0.406698    0.564848
  C      3.076369    0.720744    0.785435
  Cl     2.306069    2.296897    1.060993
  O      0.541666    0.741281   -0.991651
  C     -0.706585    0.579335   -0.454581
  C     -1.423461    1.733827   -0.147273
  C     -2.704159    1.631520    0.401166
  C     -3.272783    0.376296    0.630744
  C     -2.563546   -0.781033    0.306947
  C     -1.281557   -0.670926   -0.236861
  H      1.270857   -2.443778   -1.336086
  H      2.194897   -0.287693   -1.585741
  H      2.613316   -1.356433    0.670490
  H      1.318466   -0.389203    1.361073
  H      3.758803    0.819291   -0.064303
  H      3.677212    0.507890    1.675036
  H     -0.982594    2.711417   -0.324520
  H     -3.260310    2.532949    0.647715
  H     -4.271944    0.300647    1.053129
  H     -3.009727   -1.759705    0.466924

 Total Charge           Charge          ....    0
 Multiplicity           Mult            ....    1
 Number of Electrons    NEL             ....  110
 Basis Dimension        Dim             ....  250

ORBITAL ENERGIES
----------------

  NO   OCC          E(Eh)            E(eV)
   0   2.0000    -104.779455     -2851.1939
   1   2.0000     -20.601474      -560.5946
   2   2.0000     -20.515612      -558.2582
   3   2.0000     -15.594198      -424.3397
   4   2.0000     -11.360417      -309.1327
   5   2.0000     -11.359131      -309.0977
   6   2.0000     -11.322984      -308.1141
   7   2.0000     -11.306476      -307.6649
   8   2.0000     -11.262160      -306.4590
   9   2.0000     -11.260152      -306.4043
  10   2.0000     -11.259177      -306.3778
  11   2.0000     -11.248332      -306.0827
  12   2.0000     -11.243904      -305.9622
  13   2.0000     -11.242909      -305.9351
  14   2.0000     -10.543238      -286.8961
  15   2.0000      -8.018289      -218.1887
  16   2.0000      -8.014807      -218.0940
  17   2.0000      -8.014723      -218.0917
  18   2.0000      -1.429607       -38.9016
  19   2.0000      -1.367070       -37.1999
  20   2.0000      -1.233651       -33.5694
  21   2.0000      -1.159369       -31.5480
  22   2.0000      -1.143602       -31.1190
  23   2.0000      -1.053171       -28.6582
  24   2.0000      -1.033769       -28.1303
  25   2.0000      -1.009624       -27.4733
  26   2.0000      -0.922169       -25.0935
  27   2.0000      -0.891569       -24.2608
  28   2.0000      -0.848076       -23.0773
  29   2.0000      -0.825452       -22.4617
  30   2.0000      -0.768386       -20.9088
  31   2.0000      -0.758953       -20.6522
  32   2.0000      -0.724791       -19.7226
  33   2.0000      -0.687663       -18.7123
  34   2.0000      -0.670728       -18.2514
  35   2.0000      -0.664630       -18.0855
  36   2.0000      -0.636009       -17.3067
  37   2.0000      -0.626095       -17.0369
  38   2.0000      -0.623623       -16.9696
  39   2.0000      -0.607396       -16.5281
  40   2.0000      -0.597398       -16.2560
  41   2.0000      -0.586013       -15.9462
  42   2.0000      -0.566890       -15.4259
  43   2.0000      -0.556184       -15.1345
  44   2.0000      -0.545410       -14.8414
  45   2.0000      -0.530535       -14.4366
  46   2.0000      -0.519021       -14.1233
  47   2.0000      -0.507259       -13.8032
  48   2.0000      -0.481010       -13.0889
  49   2.0000      -0.437182       -11.8963
  50   2.0000      -0.433625       -11.7995
  51   2.0000      -0.428941       -11.6721
  52   2.0000      -0.404551       -11.0084
  53   2.0000      -0.354788        -9.6543
  54   2.0000      -0.331661        -9.0249
  55   0.0000       0.086031         2.3410
  56   0.0000       0.131304         3.5730
  57   0.0000       0.154027         4.1913
  58   0.0000       0.182245         4.9591
  59   0.0000       0.191364         5.2073

MULLIKEN ATOMIC CHARGES
-----------------------
   0 O :   -0.424812
   1 C :    0.557660
   2 N :   -0.450140
   3 C :    0.407215
   4 C :   -0.022113
   5 C :    0.048081
   6 Cl:   -0.215141
   7 O :   -0.537753
   8 C :    0.359224
   9 C :   -0.088611
  10 C :    0.016929
  11 C :   -0.068051
  12 C :    0.053908
  13 C :   -0.338611
  14 H :    0.169413
  15 H :    0.039457
  16 H :    0.048338
  17 H :    0.063889
  18 H :    0.073278
  19 H :    0.085112
  20 H :    0.051613
  21 H :    0.053549
  22 H :    0.046270
  23 H :    0.071296
Sum of atomic charges:   -0.0000000

LOEWDIN ATOMIC CHARGES
----------------------
   0 O :   -0.308396
   1 C :    0.178760
   2 N :   -0.083871
   3 C :    0.185576
   4 C :   -0.053469
   5 C :   -0.044806
   6 Cl:    0.012867
   7 O :   -0.177315
   8 C :    0.114738
   9 C :   -0.051684
  10 C :    0.019317
  11 C :   -0.055174
  12 C :    0.047642
  13 C :   -0.137503
  14 H :    0.089268
  15 H :    0.019537
  16 H :    0.028175
  17 H :    0.030414
  18 H :    0.018723
  19 H :    0.023511
  20 H :    0.036709
  21 H :    0.033417
  22 H :    0.028491
  23 H :    0.045074

  Mayer bond orders larger than 0.100000
B(  0-O ,  1-C ) :   2.0385 B(  1-C ,  2-N ) :   1.1116 B(  1-C , 13-C ) :   0.9527
B(  2-N ,  3-C ) :   0.9334 B(  2-N , 14-H ) :   0.9305 B(  3-C ,  4-C ) :   0.9927
B(  3-C ,  7-O ) :   0.8847 B(  3-C , 15-H ) :   0.9769 B(  4-C ,  5-C ) :   1.0099
B(  4-C , 16-H ) :   0.9652 B(  4-C , 17-H ) :   0.9479 B(  5-C ,  6-Cl) :   0.9661
B(  5-C , 18-H ) :   0.9689 B(  5-C , 19-H ) :   0.9757 B(  7-O ,  8-C ) :   0.9809
B(  8-C ,  9-C ) :   1.4218 B(  8-C , 13-C ) :   1.3356 B(  9-C , 10-C ) :   1.4252
B(  9-C , 20-H ) :   1.0038 B( 10-C , 11-C ) :   1.3751 B( 10-C , 21-H ) :   0.9980
B( 11-C , 12-C ) :   1.4434 B( 11-C , 22-H ) :   1.0025 B( 12-C , 13-C ) :   1.3860
B( 12-C , 23-H ) :   1.0005

FINAL SINGLE POINT ENERGY     -1047.610324265715

DIPOLE MOMENT
-------------
                                X             Y             Z
Electronic contribution:      1.69730       4.17589      -0.52783
Nuclear contribution   :     -0.65611      -3.85035       0.79136
                        -----------------------------------------
Total Dipole Moment    :      1.04120       0.32554       0.26353
                        -----------------------------------------
Magnitude (a.u.)       :      1.12228
Magnitude (Debye)      :      2.85261

Rotational constants in cm-1:     0.029759     0.016841     0.011854
Rotational constants in MHz :   892.163297   504.870300   355.363795

                             ****ORCA TERMINATED NORMALLY****
TOTAL RUN TIME: 0 days 0 hours 0 minutes 8 seconds 998 msec
