                         Program Version 5.0.3 -  RELEASE  -
|  1> !RHF def2-SVP TightSCF PAL16
|  2> *xyz 0 1
|  3> C -6.116418450412699 -0.19629546032252806 -1.4484695551459585
|  4> C -5.387575859132048 0.4497935585021796 -0.27788527471877655
|  5> C -3.8688000803164715 0.3794093699029732 -0.4036572787992797
|  6> S -3.2495844182795137 -1.3204958061580019 -0.1573911322581181
|  7> O -3.4824155957736775 -1.6745045113067578 1.282716002099757
|  8> C -1.4842985474659425 -0.9355046968290612 -0.2911044391711484
|  9> C -0.9251350859364654 -0.7057577312021418 -1.5720594361240428
| 10> C 0.4371671355536629 -0.42310538514398244 -1.7290238440073855
| 11> C 1.19895177750005 -0.3541534639918632 -0.5883565732805544
| 12> N 2.574844637347407 -0.18417530148119024 -0.4211376234954234
| 13> C 2.8653480903990682 -0.15773706585974476 0.9445256633096908
| 14> N 3.932711258832347 0.20511488489762938 1.5678243353494237
| 15> C 4.99627241357645 0.6246526086610613 0.8228789418065441
| 16> O 4.9847863347477634 0.9292283189483063 -0.36533761891657807
| 17> O 6.101118351113074 0.679047896664997 1.6142489751231022
| 18> C 7.280111546761788 1.1166452469209556 0.9433562492147065
| 19> N 1.70344985260376 -0.560779809541682 1.6030048941242292
| 20> C 0.6497300038186233 -0.5917608651026326 0.6847417443012938
| 21> C -0.6782218337453736 -0.9001347315298464 0.8557309553373008
| 22> H -7.19667252412543 -0.053770849204032474 -1.3422533999400128
| 23> H -5.808673380839612 0.252932467595989 -2.3981314913722183
| 24> H -5.926252188564144 -1.2724367429477528 -1.4985465187936016
| 25> H -5.721723079658453 -0.011421758172212974 0.6588093736551032
| 26> H -5.682014452140165 1.5052861452060693 -0.23450210845022854
| 27> H -3.4085755235495148 1.0142885338174648 0.3610472472477654
| 28> H -3.5472386760855463 0.7324014070962861 -1.3886121886404816
| 29> H -1.5518058723587422 -0.7687154888982615 -2.4596171988519924
| 30> H 0.8713232296376903 -0.27855685079164627 -2.711387493920261
| 31> H 3.1596995245460264 0.31468911152540013 -1.0780968377994111
| 32> H 7.1522725661117725 2.136505481081518 0.5670409486955339
| 33> H 7.536537446284204 0.43172017466127854 0.1289468674640281
| 34> H 8.101499082960304 1.1161654117301218 1.665314846347737
| 35> H 1.5729665392107548 -0.38199715141242796 2.5841407956503013
| 36> H -1.0833842226225736 -1.1165769473159812 1.8382572650980686
| 37> *
| 38>
| 39>                          ****END OF INPUT****

CARTESIAN COORDINATES (ANGSTROEM)
---------------------------------
  C     -6.116418   -0.196295   -1.448470
  C     -5.387576    0.449794   -0.277885
  C     -3.868800    0.379409   -0.403657
  S     -3.249584   -1.320496   -0.157391
  O     -3.482416   -1.674505    1.282716
  C     -1.484299   -0.935505   -0.291104
  C     -0.925135   -0.705758   -1.572059
  C      0.437167   -0.423105   -1.729024
  C      1.198952   -0.354153   -0.588357
  N      2.574845   -0.184175   -0.421138
  C      2.865348   -0.157737    0.944526
  N      3.932711    0.205115    1.567824
  C      4.996272    0.624653    0.822879
  O      4.984786    0.929228   -0.365338
  O      6.101118    0.679048    1.614249
  C      7.280112    1.116645    0.943356
  N      1.703450   -0.560780    1.603005
  C      0.649730   -0.591761    0.684742
  C     -0.678222   -0.900135    0.855731
  H     -7.196673   -0.053771   -1.342253
  H     -5.808673    0.252932   -2.398131
  H     -5.926252   -1.272437   -1.498547
  H     -5.721723   -0.011422    0.658809
  H     -5.682014    1.505286   -0.234502
  H     -3.408576    1.014289    0.361047
  H     -3.547239    0.732401   -1.388612
  H     -1.551806   -0.768715   -2.459617
  H      0.871323   -0.278557   -2.711387
  H      3.159700    0.314689   -1.078097
  H      7.152273    2.136505    0.567041
  H      7.536537    0.431720    0.128947
  H      8.101499    1.116165    1.665315
  H      1.572967   -0.381997    2.584141
  H     -1.083384   -1.116577    1.838257

 Total Charge           Charge          ....    0
 Multiplicity           Mult            ....    1
 Number of Electrons    NEL             ....  148
 Basis Dimension        Dim             ....  345

ORBITAL ENERGIES
----------------

  NO   OCC          E(Eh)            E(eV)
   0   2.0000     -92.044385     -2504.6550
   1   2.0000     -20.585636      -560.1636
   2   2.0000     -20.530734      -558.6697
   3   2.0000     -20.495228      -557.7035
   4   2.0000     -15.630675      -425.3323
   5   2.0000     -15.626783      -425.2264
   6   2.0000     -15.541941      -422.9177
   7   2.0000     -11.404552      -310.3336
   8   2.0000     -11.400795      -310.2314
   9   2.0000     -11.308966      -307.7326
  10   2.0000     -11.306892      -307.6762
  11   2.0000     -11.284822      -307.0756
  12   2.0000     -11.283588      -307.0420
  13   2.0000     -11.275851      -306.8315
  14   2.0000     -11.271116      -306.7027
  15   2.0000     -11.270930      -306.6976
  16   2.0000     -11.270879      -306.6962
  17   2.0000     -11.245095      -305.9946
  18   2.0000     -11.233335      -305.6746
  19   2.0000      -9.067524      -246.7399
  20   2.0000      -6.755548      -183.8278
  21   2.0000      -6.754845      -183.8087
  22   2.0000      -6.752642      -183.7487
  23   2.0000      -1.440064       -39.1861
  24   2.0000      -1.374762       -37.4092
  25   2.0000      -1.334389       -36.3106
  26   2.0000      -1.327140       -36.1133
  27   2.0000      -1.223680       -33.2980
  28   2.0000      -1.217468       -33.1290
  29   2.0000      -1.160241       -31.5718
  30   2.0000      -1.088996       -29.6331
  31   2.0000      -1.043361       -28.3913
  32   2.0000      -1.032912       -28.1070
  33   2.0000      -0.977738       -26.6056
  34   2.0000      -0.958045       -26.0697
  35   2.0000      -0.901330       -24.5264
  36   2.0000      -0.887738       -24.1566
  37   2.0000      -0.871496       -23.7146
  38   2.0000      -0.833604       -22.6835
  39   2.0000      -0.798750       -21.7351
  40   2.0000      -0.791476       -21.5371
  41   2.0000      -0.745306       -20.2808
  42   2.0000      -0.737809       -20.0768
  43   2.0000      -0.704786       -19.1782
  44   2.0000      -0.698085       -18.9959
  45   2.0000      -0.677383       -18.4325
  46   2.0000      -0.665689       -18.1143
  47   2.0000      -0.665019       -18.0961
  48   2.0000      -0.656807       -17.8726
  49   2.0000      -0.647824       -17.6282
  50   2.0000      -0.645473       -17.5642
  51   2.0000      -0.640212       -17.4211
  52   2.0000      -0.616927       -16.7874
  53   2.0000      -0.595290       -16.1987
  54   2.0000      -0.591958       -16.1080
  55   2.0000      -0.581413       -15.8210
  56   2.0000      -0.566807       -15.4236
  57   2.0000      -0.562928       -15.3181
  58   2.0000      -0.547207       -14.8903
  59   2.0000      -0.529151       -14.3989
  60   2.0000      -0.523924       -14.2567
  61   2.0000      -0.519464       -14.1353
  62   2.0000      -0.505109       -13.7447
  63   2.0000      -0.502315       -13.6687
  64   2.0000      -0.500795       -13.6273
  65   2.0000      -0.497836       -13.5468
  66   2.0000      -0.488554       -13.2942
  67   2.0000      -0.459179       -12.4949
  68   2.0000      -0.429708       -11.6929
  69   2.0000      -0.426222       -11.5981
  70   2.0000      -0.419566       -11.4170
  71   2.0000      -0.377595       -10.2749
  72   2.0000      -0.355446        -9.6722
  73   2.0000      -0.313153        -8.5213
  74   0.0000       0.095063         2.5868
  75   0.0000       0.106422         2.8959
  76   0.0000       0.148163         4.0317
  77   0.0000       0.158174         4.3041
  78   0.0000       0.168072         4.5735

MULLIKEN ATOMIC CHARGES
-----------------------
   0 C :   -0.052747
   1 C :   -0.091487
   2 C :   -0.119887
   3 S :    0.683447
   4 O :   -0.743677
   5 C :   -0.260651
   6 C :    0.030122
   7 C :   -0.083753
   8 C :    0.194624
   9 N :   -0.394763
  10 C :    0.564898
  11 N :   -0.436631
  12 C :    0.633504
  13 O :   -0.512060
  14 O :   -0.509908
  15 C :    0.235633
  16 N :   -0.369253
  17 C :    0.180245
  18 C :   -0.016369
  19 H :    0.045294
  20 H :    0.025487
  21 H :    0.044555
  22 H :    0.072181
  23 H :    0.049585
  24 H :    0.081495
  25 H :    0.063871
  26 H :    0.048773
  27 H :    0.045026
  28 H :    0.213940
  29 H :    0.039507
  30 H :    0.038463
  31 H :    0.042577
  32 H :    0.185129
  33 H :    0.072827
Sum of atomic charges:    0.0000000

LOEWDIN ATOMIC CHARGES
----------------------
   0 C :   -0.040469
   1 C :   -0.038662
   2 C :   -0.128342
   3 S :    0.898930
   4 O :   -0.706196
   5 C :   -0.192153
   6 C :   -0.030634
   7 C :   -0.040888
   8 C :    0.039254
   9 N :   -0.028233
  10 C :    0.235942
  11 N :   -0.286283
  12 C :    0.224642
  13 O :   -0.341615
  14 O :   -0.183605
  15 C :    0.134666
  16 N :   -0.019743
  17 C :    0.028169
  18 C :   -0.025401
  19 H :    0.022478
  20 H :    0.013055
  21 H :    0.015167
  22 H :    0.027757
  23 H :    0.023788
  24 H :    0.025621
  25 H :    0.017528
  26 H :    0.027681
  27 H :    0.036647
  28 H :    0.098928
  29 H :    0.013608
  30 H :    0.013335
  31 H :    0.017479
  32 H :    0.101807
  33 H :    0.045743

  Mayer bond orders larger than 0.100000
B(  0-C ,  1-C ) :   1.0249 B(  0-C , 19-H ) :   0.9885 B(  0-C , 20-H ) :   0.9848
B(  0-C , 21-H ) :   0.9867 B(  1-C ,  2-C ) :   1.0119 B(  1-C , 22-H ) :   0.9695
B(  1-C , 23-H ) :   0.9780 B(  2-C ,  3-S ) :   0.9006 B(  2-C , 24-H ) :   0.9611
B(  2-C , 25-H ) :   0.9578 B(  3-S ,  4-O ) :   1.3973 B(  3-S ,  5-C ) :   0.9141
B(  5-C ,  6-C ) :   1.3854 B(  5-C , 18-C ) :   1.4048 B(  6-C ,  7-C ) :   1.4222
B(  6-C , 26-H ) :   0.9935 B(  7-C ,  8-C ) :   1.4237 B(  7-C , 27-H ) :   1.0157
B(  8-C ,  9-N ) :   1.0239 B(  8-C , 17-C ) :   1.3081 B(  9-N , 10-C ) :   1.1220
B(  9-N , 28-H ) :   0.8993 B( 10-C , 11-N ) :   1.6991 B( 10-C , 16-N ) :   1.1171
B( 11-N , 12-C ) :   1.2043 B( 12-C , 13-O ) :   1.8041 B( 12-C , 14-O ) :   1.1027
B( 14-O , 15-C ) :   0.8453 B( 15-C , 29-H ) :   0.9914 B( 15-C , 30-H ) :   0.9906
B( 15-C , 31-H ) :   0.9932 B( 16-N , 17-C ) :   1.0143 B( 16-N , 32-H ) :   0.9263
B( 17-C , 18-C ) :   1.4235 B( 18-C , 33-H ) :   1.0162

FINAL SINGLE POINT ENERGY     -1247.821420202821

DIPOLE MOMENT
-------------
                                X             Y             Z
Electronic contribution:     15.55955      -5.82395       5.65146
Nuclear contribution   :    -16.00443       6.82275      -7.12265
                        -----------------------------------------
Total Dipole Moment    :     -0.44488       0.99881      -1.47119
                        -----------------------------------------
Magnitude (a.u.)       :      1.83301
Magnitude (Debye)      :      4.65915

Rotational constants in cm-1:     0.045577     0.003701     0.003574
Rotational constants in MHz :  1366.379046   110.948066   107.141051

                             ****ORCA TERMINATED NORMALLY****
TOTAL RUN TIME: 0 days 0 hours 0 minutes 15 seconds 438 msec
