                         Program Version 5.0.3 -  RELEASE  -
|  1> !RHF def2-SVP TightSCF PAL16
|  2> *xyz 0 1
|  3> C 4.97299225184669 -1.748502597134474 -1.7483485021011045
|  4> C 5.047278515319728 -0.5641960269465334 -0.7949646595601244
|  5> C 3.809581719772823 0.3273567920652844 -0.8675049538106032
|  6> C 2.583735558783849 -0.3072122318182005 -0.2531813366360637
|  7> O 2.5769516070497165 -1.285842001289551 0.4805537398392583
|  8> O 1.4766072863573252 0.40222228902757406 -0.6046491803850718
|  9> C 0.20338815151831843 -0.10358694499490935 -0.12727674742581407
| 10> C -0.9013860905475835 0.6575161895986954 -0.8755230856545716
| 11> N -2.2352243655062862 0.15601852244925082 -0.5370167065753941
| 12> C -3.2942967601927426 1.0992661976693279 -0.9029268363181479
| 13> C -4.477269943766827 0.5909459984648221 -0.10588294073781648
| 14> C -3.8546761835328094 0.24985427137852664 1.2402873813638178
| 15> O -4.588560718981018 -0.7890995820544313 1.877713177045552
| 16> C -2.4097658062810803 -0.17011808916498022 0.9008007606131534
| 17> C -1.3614634840777977 0.4639361790537751 1.8422566173221675
| 18> O -1.4772337240734734 1.896725755074867 1.8425747414150653
| 19> C 0.06554420659057211 0.08156134735325685 1.4048508886999722
| 20> O 0.4314029896417635 -1.1362905776951815 2.0770415462947303
| 21> H 4.850285814352125 -1.4115028396492273 -2.7826396319817803
| 22> H 5.895428365848539 -2.3352627200091587 -1.6917489381069295
| 23> H 4.137755437279483 -2.4112088007597463 -1.5024172397912732
| 24> H 5.92763442730007 0.03543663072966328 -1.0549257748107344
| 25> H 5.199279877385697 -0.9292133120100652 0.22735505076600018
| 26> H 4.00283421509548 1.2559037693223647 -0.31883322241662254
| 27> H 3.595841100039521 0.5790331131087657 -1.912564600404625
| 28> H 0.1436863741233843 -1.167010506785878 -0.3982217672114782
| 29> H -0.7958178845143841 1.7312935348963967 -0.6690698999444151
| 30> H -0.7431434699638594 0.5531115171315812 -1.9562885329605944
| 31> H -3.4955634273288707 1.0865074046773557 -1.9783620945404412
| 32> H -3.0559078577100447 2.1267690810020246 -0.6003744306109573
| 33> H -5.267643742628604 1.3420174519181773 -0.009220548580218455
| 34> H -4.922420032615973 -0.2947530154747251 -0.5762031391474782
| 35> H -3.8848625935738403 1.1288608548827836 1.89252885684175
| 36> H -4.587466795120458 -1.558202166627466 1.2800661709187076
| 37> H -2.3157550477102533 -1.2602297613247786 0.9943297008908734
| 38> H -1.5440004797762341 0.11716130846519002 2.867515693277255
| 39> H -1.7789886792250211 2.1558083088949864 2.732063205120124
| 40> H 0.7690196271349267 0.8478344485231696 1.7529331444554728
| 41> H 1.3021995616819115 -1.4129097919326026 1.7144286432127094
| 42> *
| 43>
| 44>                          ****END OF INPUT****

CARTESIAN COORDINATES (ANGSTROEM)
---------------------------------
  C      4.972992   -1.748503   -1.748349
  C      5.047279   -0.564196   -0.794965
  C      3.809582    0.327357   -0.867505
  C      2.583736   -0.307212   -0.253181
  O      2.576952   -1.285842    0.480554
  O      1.476607    0.402222   -0.604649
  C      0.203388   -0.103587   -0.127277
  C     -0.901386    0.657516   -0.875523
  N     -2.235224    0.156019   -0.537017
  C     -3.294297    1.099266   -0.902927
  C     -4.477270    0.590946   -0.105883
  C     -3.854676    0.249854    1.240287
  O     -4.588561   -0.789100    1.877713
  C     -2.409766   -0.170118    0.900801
  C     -1.361463    0.463936    1.842257
  O     -1.477234    1.896726    1.842575
  C      0.065544    0.081561    1.404851
  O      0.431403   -1.136291    2.077042
  H      4.850286   -1.411503   -2.782640
  H      5.895428   -2.335263   -1.691749
  H      4.137755   -2.411209   -1.502417
  H      5.927634    0.035437   -1.054926
  H      5.199280   -0.929213    0.227355
  H      4.002834    1.255904   -0.318833
  H      3.595841    0.579033   -1.912565
  H      0.143686   -1.167011   -0.398222
  H     -0.795818    1.731294   -0.669070
  H     -0.743143    0.553112   -1.956289
  H     -3.495563    1.086507   -1.978362
  H     -3.055908    2.126769   -0.600374
  H     -5.267644    1.342017   -0.009221
  H     -4.922420   -0.294753   -0.576203
  H     -3.884863    1.128861    1.892529
  H     -4.587467   -1.558202    1.280066
  H     -2.315755   -1.260230    0.994330
  H     -1.544000    0.117161    2.867516
  H     -1.778989    2.155808    2.732063
  H      0.769020    0.847834    1.752933
  H      1.302200   -1.412910    1.714429

 Total Charge           Charge          ....    0
 Multiplicity           Mult            ....    1
 Number of Electrons    NEL             ....  140
 Basis Dimension        Dim             ....  357

ORBITAL ENERGIES
----------------

  NO   OCC          E(Eh)            E(eV)
   0   2.0000     -20.611601      -560.8702
   1   2.0000     -20.567171      -559.6612
   2   2.0000     -20.561087      -559.4956
   3   2.0000     -20.544115      -559.0338
   4   2.0000     -20.523260      -558.4663
   5   2.0000     -15.548801      -423.1044
   6   2.0000     -11.409471      -310.4675
   7   2.0000     -11.302075      -307.5451
   8   2.0000     -11.290210      -307.2222
   9   2.0000     -11.282814      -307.0210
  10   2.0000     -11.279836      -306.9400
  11   2.0000     -11.258191      -306.3510
  12   2.0000     -11.256835      -306.3141
  13   2.0000     -11.255846      -306.2871
  14   2.0000     -11.250256      -306.1350
  15   2.0000     -11.236777      -305.7682
  16   2.0000     -11.225039      -305.4489
  17   2.0000     -11.221777      -305.3601
  18   2.0000      -1.456486       -39.6330
  19   2.0000      -1.361200       -37.0401
  20   2.0000      -1.351671       -36.7808
  21   2.0000      -1.337077       -36.3837
  22   2.0000      -1.313995       -35.7556
  23   2.0000      -1.232624       -33.5414
  24   2.0000      -1.088016       -29.6064
  25   2.0000      -1.064825       -28.9754
  26   2.0000      -1.026503       -27.9326
  27   2.0000      -1.001353       -27.2482
  28   2.0000      -0.961074       -26.1521
  29   2.0000      -0.928909       -25.2769
  30   2.0000      -0.866930       -23.5904
  31   2.0000      -0.842863       -22.9355
  32   2.0000      -0.813418       -22.1342
  33   2.0000      -0.804603       -21.8944
  34   2.0000      -0.772053       -21.0086
  35   2.0000      -0.747024       -20.3276
  36   2.0000      -0.737270       -20.0621
  37   2.0000      -0.720406       -19.6033
  38   2.0000      -0.697075       -18.9684
  39   2.0000      -0.688797       -18.7431
  40   2.0000      -0.677826       -18.4446
  41   2.0000      -0.671822       -18.2812
  42   2.0000      -0.646758       -17.5992
  43   2.0000      -0.633691       -17.2436
  44   2.0000      -0.629995       -17.1430
  45   2.0000      -0.615828       -16.7575
  46   2.0000      -0.609467       -16.5844
  47   2.0000      -0.594554       -16.1786
  48   2.0000      -0.586888       -15.9700
  49   2.0000      -0.578449       -15.7404
  50   2.0000      -0.568849       -15.4792
  51   2.0000      -0.565685       -15.3931
  52   2.0000      -0.561410       -15.2767
  53   2.0000      -0.550945       -14.9920
  54   2.0000      -0.532659       -14.4944
  55   2.0000      -0.525682       -14.3045
  56   2.0000      -0.516306       -14.0494
  57   2.0000      -0.511338       -13.9142
  58   2.0000      -0.497883       -13.5481
  59   2.0000      -0.495328       -13.4786
  60   2.0000      -0.492842       -13.4109
  61   2.0000      -0.492307       -13.3963
  62   2.0000      -0.483301       -13.1513
  63   2.0000      -0.478232       -13.0134
  64   2.0000      -0.471263       -12.8237
  65   2.0000      -0.462199       -12.5771
  66   2.0000      -0.450986       -12.2720
  67   2.0000      -0.424385       -11.5481
  68   2.0000      -0.414541       -11.2802
  69   2.0000      -0.356201        -9.6927
  70   0.0000       0.148228         4.0335
  71   0.0000       0.160600         4.3701
  72   0.0000       0.167963         4.5705
  73   0.0000       0.184454         5.0193
  74   0.0000       0.200117         5.4455

MULLIKEN ATOMIC CHARGES
-----------------------
   0 C :   -0.057732
   1 C :   -0.075230
   2 C :   -0.082761
   3 C :    0.532460
   4 O :   -0.469293
   5 O :   -0.557292
   6 C :    0.122015
   7 C :    0.313803
   8 N :   -0.718647
   9 C :    0.187396
  10 C :    0.015409
  11 C :    0.186218
  12 O :   -0.465094
  13 C :    0.166876
  14 C :    0.139179
  15 O :   -0.466147
  16 C :    0.323522
  17 O :   -0.494247
  18 H :    0.024216
  19 H :    0.039906
  20 H :    0.049984
  21 H :    0.035688
  22 H :    0.053961
  23 H :    0.081047
  24 H :    0.071496
  25 H :    0.062172
  26 H :    0.026631
  27 H :    0.032091
  28 H :    0.029837
  29 H :    0.027987
  30 H :    0.039710
  31 H :    0.025882
  32 H :    0.025592
  33 H :    0.195963
  34 H :    0.042041
  35 H :    0.054637
  36 H :    0.209655
  37 H :    0.029686
  38 H :    0.241383
Sum of atomic charges:    0.0000000

LOEWDIN ATOMIC CHARGES
----------------------
   0 C :   -0.037888
   1 C :   -0.021656
   2 C :   -0.038430
   3 C :    0.249521
   4 O :   -0.269880
   5 O :   -0.186795
   6 C :    0.111051
   7 C :    0.062310
   8 N :   -0.200285
   9 C :    0.067527
  10 C :   -0.027815
  11 C :    0.110636
  12 O :   -0.190978
  13 C :    0.031462
  14 C :    0.101918
  15 O :   -0.199474
  16 C :    0.099527
  17 O :   -0.221866
  18 H :    0.012363
  19 H :    0.020482
  20 H :    0.019739
  21 H :    0.017676
  22 H :    0.023755
  23 H :    0.045642
  24 H :    0.037947
  25 H :    0.022162
  26 H :    0.005380
  27 H :    0.013851
  28 H :    0.009509
  29 H :    0.000087
  30 H :    0.019210
  31 H :    0.015522
  32 H :    0.011664
  33 H :    0.081508
  34 H :    0.015223
  35 H :    0.021820
  36 H :    0.090975
  37 H :    0.009299
  38 H :    0.067303

  Mayer bond orders larger than 0.100000
B(  0-C ,  1-C ) :   1.0249 B(  0-C , 18-H ) :   0.9842 B(  0-C , 19-H ) :   0.9883
B(  0-C , 20-H ) :   0.9876 B(  1-C ,  2-C ) :   1.0374 B(  1-C , 21-H ) :   0.9781
B(  1-C , 22-H ) :   0.9683 B(  2-C ,  3-C ) :   0.9698 B(  2-C , 23-H ) :   0.9539
B(  2-C , 24-H ) :   0.9657 B(  3-C ,  4-O ) :   1.8342 B(  3-C ,  5-O ) :   1.0880
B(  5-O ,  6-C ) :   0.7691 B(  6-C ,  7-C ) :   1.0722 B(  6-C , 16-C ) :   0.9846
B(  6-C , 25-H ) :   0.9547 B(  7-C ,  8-N ) :   0.9262 B(  7-C , 26-H ) :   0.9479
B(  7-C , 27-H ) :   0.9655 B(  8-N ,  9-C ) :   0.9055 B(  8-N , 13-C ) :   0.8997
B(  9-C , 10-C ) :   1.0357 B(  9-C , 28-H ) :   0.9757 B(  9-C , 29-H ) :   0.9662
B( 10-C , 11-C ) :   1.0532 B( 10-C , 30-H ) :   0.9755 B( 10-C , 31-H ) :   0.9615
B( 11-C , 12-O ) :   0.8906 B( 11-C , 13-C ) :   0.9830 B( 11-C , 32-H ) :   0.9529
B( 12-O , 33-H ) :   0.9708 B( 13-C , 14-C ) :   0.9756 B( 13-C , 34-H ) :   0.9480
B( 14-C , 15-O ) :   0.9094 B( 14-C , 16-C ) :   0.9919 B( 14-C , 35-H ) :   0.9687
B( 15-O , 36-H ) :   0.9673 B( 16-C , 17-O ) :   0.9739 B( 16-C , 37-H ) :   0.9566
B( 17-O , 38-H ) :   0.9258

FINAL SINGLE POINT ENERGY      -894.717493266769

DIPOLE MOMENT
-------------
                                X             Y             Z
Electronic contribution:     -6.33757       0.31865       6.84998
Nuclear contribution   :      6.88686       0.56013      -7.71972
                        -----------------------------------------
Total Dipole Moment    :      0.54929       0.87877      -0.86974
                        -----------------------------------------
Magnitude (a.u.)       :      1.35293
Magnitude (Debye)      :      3.43887

Rotational constants in cm-1:     0.034956     0.006271     0.005958
Rotational constants in MHz :  1047.960279   187.987939   178.627817

                             ****ORCA TERMINATED NORMALLY****
TOTAL RUN TIME: 0 days 0 hours 0 minutes 18 seconds 339 msec
