                         Program Version 5.0.3 -  RELEASE  -
|  1> !RHF def2-SVP TightSCF PAL16
|  2> *xyz 0 1
|  3> C 5.123571029788273 0.28055526910913775 1.2396667584994951
|  4> C 4.029092785481622 1.2598765029461985 0.8537974083644571
|  5> O 3.2340743315347753 0.7464098610542146 -0.21227129022521513
|  6> C 2.196864114256042 -0.1333627771860243 0.21970753654647981
|  7> O 1.210279060733889 0.5641048917310401 0.9931438217428912
|  8> C 0.23410241614589605 1.1359791156856744 0.13626767710563548
|  9> O -0.4949955506504261 2.1618859826281898 0.7770974781698793
| 10> C -1.5615542869233336 2.5604530036694944 -0.09330061709976561
| 11> C -1.5046112937461282 4.088564430329117 -0.1496637800337598
| 12> C -2.8691073131248097 2.12458370596108 0.5605589273756851
| 13> C -3.1543100736747784 0.6356546098320546 0.43432205472674024
| 14> C -1.9366014584222062 -0.31754175835449283 0.5550817583130825
| 15> C -2.457078402581163 -1.778608013595571 0.357523248246708
| 16> C -3.1541989273763487 -2.0512930347444596 -0.9868724969548585
| 17> C -1.3524157739584062 -2.812232243838355 0.5899606523654579
| 18> C 0.04945325280552621 -2.297168040251556 0.31195035292993795
| 19> C 0.10890687370305187 -1.216370589065953 -0.7843313746690714
| 20> C 1.5815375224264565 -0.7957765062265961 -1.0446098618864688
| 21> C 2.477081284369199 -1.9249066459778468 -1.5618765820035032
| 22> C -0.7401944236306883 0.05007810732845902 -0.3998870183997207
| 23> O -1.361976658326382 0.6169723080517383 -1.5757062812340963
| 24> O -1.4267594756254438 2.104782767151097 -1.4614839233095531
| 25> H 4.706917734347137 -0.6365447720792834 1.6662001956215315
| 26> H 5.796673643480761 0.7262602640255338 1.9777842810450312
| 27> H 5.706449967964647 -0.011461209987427438 0.36000414390882945
| 28> H 3.414493232445475 1.531838992959874 1.7186856824689638
| 29> H 4.495424900849435 2.1796711212883895 0.4855270249148834
| 30> H 2.6213119840292913 -0.905614219953342 0.8702692300486411
| 31> H 0.7684780941204075 1.6394642129789743 -0.6832378311242882
| 32> H -1.5867579643699006 4.531815283583139 0.8486590393903827
| 33> H -0.547194094447985 4.41774005488734 -0.57082684472017
| 34> H -2.294684316855058 4.494631908229167 -0.7903570778253259
| 35> H -2.8500182870629516 2.384335315199928 1.6270163997666096
| 36> H -3.715444496522166 2.661430309327375 0.1135141862527947
| 37> H -3.6427938675538103 0.49884961507106323 -0.5369643673330137
| 38> H -3.9084420509564666 0.36063522679691584 1.1830206077721317
| 39> H -1.5650667240786917 -0.2572302809691525 1.5882086402861435
| 40> H -3.22191583733057 -1.9631344525000538 1.1257268065885924
| 41> H -4.084740046984299 -1.4847819743639767 -1.0814010222402273
| 42> H -3.435239518023684 -3.107685557805888 -1.0679518109376938
| 43> H -2.5212144994699255 -1.8119827734721956 -1.84418754072025
| 44> H -1.3882240641199481 -3.1464188869691156 1.635341530649053
| 45> H -1.5330715762063538 -3.714929279890956 -0.006697607773890347
| 46> H 0.4562131511612614 -1.907681779433456 1.252695599482102
| 47> H 0.6755061499736585 -3.1564744028097333 0.048530613732635744
| 48> H -0.28002241603282657 -1.6412340147754523 -1.718238011667352
| 49> H 1.564670689398114 -0.05586025353559465 -1.8587032556550747
| 50> H 2.0156214508432964 -2.4239063453005896 -2.42016187227766
| 51> H 3.4441911847491715 -1.5267340719615772 -1.8878327527968812
| 52> H 2.6777185434471455 -2.6776389747742484 -0.7936984354271405
| 53> *
| 54>
| 55>                          ****END OF INPUT****

CARTESIAN COORDINATES (ANGSTROEM)
---------------------------------
  C      5.123571    0.280555    1.239667
  C      4.029093    1.259877    0.853797
  O      3.234074    0.746410   -0.212271
  C      2.196864   -0.133363    0.219708
  O      1.210279    0.564105    0.993144
  C      0.234102    1.135979    0.136268
  O     -0.494996    2.161886    0.777097
  C     -1.561554    2.560453   -0.093301
  C     -1.504611    4.088564   -0.149664
  C     -2.869107    2.124584    0.560559
  C     -3.154310    0.635655    0.434322
  C     -1.936601   -0.317542    0.555082
  C     -2.457078   -1.778608    0.357523
  C     -3.154199   -2.051293   -0.986872
  C     -1.352416   -2.812232    0.589961
  C      0.049453   -2.297168    0.311950
  C      0.108907   -1.216371   -0.784331
  C      1.581538   -0.795777   -1.044610
  C      2.477081   -1.924907   -1.561877
  C     -0.740194    0.050078   -0.399887
  O     -1.361977    0.616972   -1.575706
  O     -1.426759    2.104783   -1.461484
  H      4.706918   -0.636545    1.666200
  H      5.796674    0.726260    1.977784
  H      5.706450   -0.011461    0.360004
  H      3.414493    1.531839    1.718686
  H      4.495425    2.179671    0.485527
  H      2.621312   -0.905614    0.870269
  H      0.768478    1.639464   -0.683238
  H     -1.586758    4.531815    0.848659
  H     -0.547194    4.417740   -0.570827
  H     -2.294684    4.494632   -0.790357
  H     -2.850018    2.384335    1.627016
  H     -3.715444    2.661430    0.113514
  H     -3.642794    0.498850   -0.536964
  H     -3.908442    0.360635    1.183021
  H     -1.565067   -0.257230    1.588209
  H     -3.221916   -1.963134    1.125727
  H     -4.084740   -1.484782   -1.081401
  H     -3.435240   -3.107686   -1.067952
  H     -2.521214   -1.811983   -1.844188
  H     -1.388224   -3.146419    1.635342
  H     -1.533072   -3.714929   -0.006698
  H      0.456213   -1.907682    1.252696
  H      0.675506   -3.156474    0.048531
  H     -0.280022   -1.641234   -1.718238
  H      1.564671   -0.055860   -1.858703
  H      2.015621   -2.423906   -2.420162
  H      3.444191   -1.526734   -1.887833
  H      2.677719   -2.677639   -0.793698

 Total Charge           Charge          ....    0
 Multiplicity           Mult            ....    1
 Number of Electrons    NEL             ....  170
 Basis Dimension        Dim             ....  448

ORBITAL ENERGIES
----------------

  NO   OCC          E(Eh)            E(eV)
   0   2.0000     -20.627177      -561.2940
   1   2.0000     -20.620033      -561.0996
   2   2.0000     -20.570890      -559.7624
   3   2.0000     -20.566533      -559.6438
   4   2.0000     -20.556407      -559.3683
   5   2.0000     -11.353303      -308.9391
   6   2.0000     -11.346529      -308.7547
   7   2.0000     -11.345721      -308.7328
   8   2.0000     -11.304165      -307.6020
   9   2.0000     -11.277224      -306.8689
  10   2.0000     -11.248084      -306.0759
  11   2.0000     -11.241042      -305.8843
  12   2.0000     -11.237648      -305.7919
  13   2.0000     -11.230238      -305.5903
  14   2.0000     -11.229367      -305.5666
  15   2.0000     -11.228707      -305.5487
  16   2.0000     -11.226754      -305.4955
  17   2.0000     -11.226184      -305.4800
  18   2.0000     -11.223872      -305.4171
  19   2.0000     -11.223455      -305.4057
  20   2.0000     -11.219529      -305.2989
  21   2.0000     -11.214902      -305.1730
  22   2.0000      -1.464281       -39.8451
  23   2.0000      -1.412012       -38.4228
  24   2.0000      -1.371878       -37.3307
  25   2.0000      -1.328971       -36.1632
  26   2.0000      -1.239875       -33.7387
  27   2.0000      -1.123719       -30.5780
  28   2.0000      -1.083192       -29.4752
  29   2.0000      -1.058267       -28.7969
  30   2.0000      -1.018173       -27.7059
  31   2.0000      -1.009103       -27.4591
  32   2.0000      -0.993679       -27.0394
  33   2.0000      -0.972255       -26.4564
  34   2.0000      -0.925244       -25.1772
  35   2.0000      -0.921625       -25.0787
  36   2.0000      -0.892045       -24.2738
  37   2.0000      -0.870799       -23.6956
  38   2.0000      -0.845496       -23.0071
  39   2.0000      -0.819701       -22.3052
  40   2.0000      -0.790707       -21.5162
  41   2.0000      -0.778095       -21.1730
  42   2.0000      -0.762323       -20.7439
  43   2.0000      -0.735470       -20.0131
  44   2.0000      -0.722451       -19.6589
  45   2.0000      -0.696297       -18.9472
  46   2.0000      -0.685683       -18.6584
  47   2.0000      -0.678877       -18.4732
  48   2.0000      -0.668987       -18.2041
  49   2.0000      -0.649362       -17.6700
  50   2.0000      -0.643658       -17.5148
  51   2.0000      -0.633256       -17.2318
  52   2.0000      -0.622624       -16.9425
  53   2.0000      -0.608114       -16.5476
  54   2.0000      -0.604678       -16.4541
  55   2.0000      -0.593228       -16.1426
  56   2.0000      -0.586158       -15.9502
  57   2.0000      -0.580733       -15.8026
  58   2.0000      -0.575170       -15.6512
  59   2.0000      -0.574863       -15.6428
  60   2.0000      -0.565383       -15.3848
  61   2.0000      -0.561699       -15.2846
  62   2.0000      -0.555639       -15.1197
  63   2.0000      -0.551321       -15.0022
  64   2.0000      -0.544782       -14.8243
  65   2.0000      -0.538444       -14.6518
  66   2.0000      -0.536378       -14.5956
  67   2.0000      -0.533125       -14.5071
  68   2.0000      -0.518595       -14.1117
  69   2.0000      -0.510336       -13.8869
  70   2.0000      -0.509413       -13.8618
  71   2.0000      -0.502993       -13.6871
  72   2.0000      -0.499014       -13.5788
  73   2.0000      -0.492166       -13.3925
  74   2.0000      -0.482457       -13.1283
  75   2.0000      -0.477462       -12.9924
  76   2.0000      -0.469323       -12.7709
  77   2.0000      -0.460855       -12.5405
  78   2.0000      -0.453140       -12.3306
  79   2.0000      -0.449839       -12.2407
  80   2.0000      -0.439648       -11.9634
  81   2.0000      -0.432569       -11.7708
  82   2.0000      -0.430013       -11.7012
  83   2.0000      -0.418687       -11.3931
  84   2.0000      -0.393471       -10.7069
  85   0.0000       0.165456         4.5023
  86   0.0000       0.173258         4.7146
  87   0.0000       0.178206         4.8492
  88   0.0000       0.184737         5.0269
  89   0.0000       0.191799         5.2191

MULLIKEN ATOMIC CHARGES
-----------------------
   0 C :   -0.070984
   1 C :    0.213276
   2 O :   -0.608470
   3 C :    0.621780
   4 O :   -0.606815
   5 C :    0.708508
   6 O :   -0.576837
   7 C :    0.233349
   8 C :    0.082292
   9 C :    0.117301
  10 C :    0.003069
  11 C :   -0.051324
  12 C :   -0.234609
  13 C :    0.025157
  14 C :    0.090839
  15 C :   -0.015168
  16 C :   -0.087537
  17 C :   -0.254295
  18 C :    0.049075
  19 C :   -0.055867
  20 O :   -0.326861
  21 O :   -0.341864
  22 H :    0.024561
  23 H :    0.034547
  24 H :    0.041917
  25 H :    0.046897
  26 H :    0.032472
  27 H :    0.017940
  28 H :    0.061173
  29 H :    0.048023
  30 H :    0.041962
  31 H :    0.041237
  32 H :    0.040281
  33 H :    0.031513
  34 H :    0.056789
  35 H :    0.028351
  36 H :    0.044536
  37 H :    0.034277
  38 H :    0.031097
  39 H :    0.024606
  40 H :    0.039650
  41 H :    0.023654
  42 H :    0.020826
  43 H :    0.047496
  44 H :    0.038336
  45 H :    0.049474
  46 H :    0.072270
  47 H :    0.036176
  48 H :    0.050495
  49 H :    0.025429
Sum of atomic charges:   -0.0000000

LOEWDIN ATOMIC CHARGES
----------------------
   0 C :   -0.051906
   1 C :    0.119894
   2 O :   -0.252354
   3 C :    0.229156
   4 O :   -0.238228
   5 C :    0.212622
   6 O :   -0.226519
   7 C :    0.158146
   8 C :   -0.022310
   9 C :   -0.019528
  10 C :   -0.012252
  11 C :   -0.019761
  12 C :   -0.025424
  13 C :   -0.029830
  14 C :   -0.012092
  15 C :   -0.017484
  16 C :   -0.011735
  17 C :   -0.040766
  18 C :   -0.021369
  19 C :    0.043106
  20 O :   -0.125957
  21 O :   -0.135973
  22 H :    0.012371
  23 H :    0.021363
  24 H :    0.021120
  25 H :    0.010140
  26 H :    0.013513
  27 H :    0.000325
  28 H :    0.007497
  29 H :    0.031719
  30 H :    0.025834
  31 H :    0.024279
  32 H :    0.024577
  33 H :    0.021689
  34 H :    0.019596
  35 H :    0.018133
  36 H :    0.020746
  37 H :    0.016092
  38 H :    0.013777
  39 H :    0.013654
  40 H :    0.014364
  41 H :    0.014799
  42 H :    0.011498
  43 H :    0.016554
  44 H :    0.018652
  45 H :    0.024268
  46 H :    0.027680
  47 H :    0.020253
  48 H :    0.025308
  49 H :    0.010763

  Mayer bond orders larger than 0.100000
B(  0-C ,  1-C ) :   1.0483 B(  0-C , 22-H ) :   0.9811 B(  0-C , 23-H ) :   0.9822
B(  0-C , 24-H ) :   0.9801 B(  1-C ,  2-O ) :   0.8577 B(  1-C , 25-H ) :   0.9776
B(  1-C , 26-H ) :   0.9816 B(  2-O ,  3-C ) :   0.9328 B(  3-C ,  4-O ) :   0.8743
B(  3-C , 17-C ) :   0.9646 B(  3-C , 27-H ) :   0.9619 B(  4-O ,  5-C ) :   0.9176
B(  5-C ,  6-O ) :   0.9176 B(  5-C , 19-C ) :   0.9701 B(  5-C , 28-H ) :   0.9756
B(  6-O ,  7-C ) :   0.8525 B(  7-C ,  8-C ) :   1.0381 B(  7-C ,  9-C ) :   1.0007
B(  7-C , 21-O ) :   0.8567 B(  8-C , 29-H ) :   0.9726 B(  8-C , 30-H ) :   0.9747
B(  8-C , 31-H ) :   0.9770 B(  9-C , 10-C ) :   1.0494 B(  9-C , 32-H ) :   0.9538
B(  9-C , 33-H ) :   0.9719 B( 10-C , 11-C ) :   1.0156 B( 10-C , 34-H ) :   0.9620
B( 10-C , 35-H ) :   0.9734 B( 11-C , 12-C ) :   1.0440 B( 11-C , 19-C ) :   0.9174
B( 11-C , 36-H ) :   0.9446 B( 12-C , 13-C ) :   1.0102 B( 12-C , 14-C ) :   1.0016
B( 12-C , 37-H ) :   0.9707 B( 13-C , 38-H ) :   0.9864 B( 13-C , 39-H ) :   0.9837
B( 13-C , 40-H ) :   0.9814 B( 14-C , 15-C ) :   1.0495 B( 14-C , 41-H ) :   0.9740
B( 14-C , 42-H ) :   0.9785 B( 15-C , 16-C ) :   0.9866 B( 15-C , 43-H ) :   0.9571
B( 15-C , 44-H ) :   0.9752 B( 16-C , 17-C ) :   1.0416 B( 16-C , 19-C ) :   0.9312
B( 16-C , 45-H ) :   0.9360 B( 17-C , 18-C ) :   1.0405 B( 17-C , 46-H ) :   0.9655
B( 18-C , 47-H ) :   0.9843 B( 18-C , 48-H ) :   0.9824 B( 18-C , 49-H ) :   0.9781
B( 19-C , 20-O ) :   0.8061 B( 20-O , 21-O ) :   0.8903

FINAL SINGLE POINT ENERGY     -1033.452491350367

DIPOLE MOMENT
-------------
                                X             Y             Z
Electronic contribution:     -2.82763      10.72299      -2.19639
Nuclear contribution   :      2.92749     -11.32617       2.79109
                        -----------------------------------------
Total Dipole Moment    :      0.09986      -0.60319       0.59470
                        -----------------------------------------
Magnitude (a.u.)       :      0.85292
Magnitude (Debye)      :      2.16796

Rotational constants in cm-1:     0.013599     0.008468     0.006133
Rotational constants in MHz :   407.701831   253.866737   183.852546

                             ****ORCA TERMINATED NORMALLY****
TOTAL RUN TIME: 0 days 0 hours 0 minutes 40 seconds 41 msec
