                         Program Version 5.0.3 -  RELEASE  -
|  1> !RHF def2-SVP TightSCF PAL16
|  2> *xyz 0 1
|  3> C 0.5047086364074793 -1.2675618831483533 2.0020174167983336
|  4> C 0.3913806731628593 -0.65677207394741 0.6064331115951357
|  5> C -0.947110757964935 0.04701196261418816 0.4065999008228352
|  6> C -2.1286748522654664 -0.6936671480840073 0.22411096919207213
|  7> C -3.3594216456120516 -0.054938691317902494 0.055843125042847684
|  8> C -3.43349023061995 1.3347228636543824 0.07562146113107017
|  9> C -2.2780634419637096 2.0866958961963404 0.2676362003390263
| 10> C -1.046247357611406 1.4493578619143745 0.4354573617895629
| 11> O 1.493769047719752 0.273597021462104 0.4381617160322489
| 12> C 2.2032585490813372 -0.15343695122383774 -0.6802212516413869
| 13> C 3.3544162812327305 0.6116464942574676 -1.195814831987901
| 14> O 4.048402147657634 0.31051267355629264 -2.1502689656237157
| 15> O 3.578995123615696 1.7266643506323898 -0.4813802455672788
| 16> C 1.8292586931488717 -1.2815208430939018 -1.2747617143537797
| 17> C 0.7000476231672119 -1.6946488669523374 -0.4593314460783275
| 18> O 0.12735693437497 -2.7597708787636104 -0.6443374119510904
| 19> H 1.4816231034477985 -1.744729991567901 2.1441045039254916
| 20> H -0.26649843366649273 -2.024313768026376 2.182220606712889
| 21> H 0.4164295490438738 -0.4957825074159092 2.775507919751801
| 22> H -2.1056149211589545 -1.782861263210378 0.20969176579445897
| 23> H -4.260572595972786 -0.6455459622078726 -0.08953396789037786
| 24> H -4.391481761624161 1.8310142571084447 -0.05474267404361408
| 25> H -2.3340257922445504 3.172139670213062 0.28996234348390876
| 26> H -0.16316109704755877 2.066338493856264 0.5933215065486339
| 27> H 4.353250501791366 2.14157046204065 -0.9135844826049336
| 28> H 2.2314660239013273 -1.7957211785461202 -2.126584888702251
| 29> *
| 30>
| 31>                          ****END OF INPUT****

CARTESIAN COORDINATES (ANGSTROEM)
---------------------------------
  C      0.504709   -1.267562    2.002017
  C      0.391381   -0.656772    0.606433
  C     -0.947111    0.047012    0.406600
  C     -2.128675   -0.693667    0.224111
  C     -3.359422   -0.054939    0.055843
  C     -3.433490    1.334723    0.075621
  C     -2.278063    2.086696    0.267636
  C     -1.046247    1.449358    0.435457
  O      1.493769    0.273597    0.438162
  C      2.203259   -0.153437   -0.680221
  C      3.354416    0.611646   -1.195815
  O      4.048402    0.310513   -2.150269
  O      3.578995    1.726664   -0.481380
  C      1.829259   -1.281521   -1.274762
  C      0.700048   -1.694649   -0.459331
  O      0.127357   -2.759771   -0.644337
  H      1.481623   -1.744730    2.144105
  H     -0.266498   -2.024314    2.182221
  H      0.416430   -0.495783    2.775508
  H     -2.105615   -1.782861    0.209692
  H     -4.260573   -0.645546   -0.089534
  H     -4.391482    1.831014   -0.054743
  H     -2.334026    3.172140    0.289962
  H     -0.163161    2.066338    0.593322
  H      4.353251    2.141570   -0.913584
  H      2.231466   -1.795721   -2.126585

 Total Charge           Charge          ....    0
 Multiplicity           Mult            ....    1
 Number of Electrons    NEL             ....  114
 Basis Dimension        Dim             ....  274

ORBITAL ENERGIES
----------------

  NO   OCC          E(Eh)            E(eV)
   0   2.0000     -20.627680      -561.3077
   1   2.0000     -20.619823      -561.0939
   2   2.0000     -20.572285      -559.8003
   3   2.0000     -20.554276      -559.3103
   4   2.0000     -11.423201      -310.8411
   5   2.0000     -11.354368      -308.9681
   6   2.0000     -11.350910      -308.8740
   7   2.0000     -11.334176      -308.4186
   8   2.0000     -11.267175      -306.5954
   9   2.0000     -11.264124      -306.5124
  10   2.0000     -11.249935      -306.1263
  11   2.0000     -11.249567      -306.1163
  12   2.0000     -11.248944      -306.0993
  13   2.0000     -11.246619      -306.0361
  14   2.0000     -11.245730      -306.0119
  15   2.0000     -11.245017      -305.9925
  16   2.0000      -1.476510       -40.1779
  17   2.0000      -1.437157       -39.1070
  18   2.0000      -1.376436       -37.4547
  19   2.0000      -1.362943       -37.0876
  20   2.0000      -1.156769       -31.4773
  21   2.0000      -1.112276       -30.2666
  22   2.0000      -1.082969       -29.4691
  23   2.0000      -1.011365       -27.5206
  24   2.0000      -1.003641       -27.3105
  25   2.0000      -0.968408       -26.3517
  26   2.0000      -0.885286       -24.0899
  27   2.0000      -0.837314       -22.7845
  28   2.0000      -0.825344       -22.4588
  29   2.0000      -0.794555       -21.6209
  30   2.0000      -0.785826       -21.3834
  31   2.0000      -0.734715       -19.9926
  32   2.0000      -0.720676       -19.6106
  33   2.0000      -0.710643       -19.3376
  34   2.0000      -0.677267       -18.4294
  35   2.0000      -0.670059       -18.2332
  36   2.0000      -0.656259       -17.8577
  37   2.0000      -0.639427       -17.3997
  38   2.0000      -0.638455       -17.3732
  39   2.0000      -0.626481       -17.0474
  40   2.0000      -0.615787       -16.7564
  41   2.0000      -0.608994       -16.5716
  42   2.0000      -0.595060       -16.1924
  43   2.0000      -0.587682       -15.9916
  44   2.0000      -0.570242       -15.5171
  45   2.0000      -0.555007       -15.1025
  46   2.0000      -0.545720       -14.8498
  47   2.0000      -0.535108       -14.5610
  48   2.0000      -0.512597       -13.9485
  49   2.0000      -0.504927       -13.7398
  50   2.0000      -0.503819       -13.7096
  51   2.0000      -0.494842       -13.4653
  52   2.0000      -0.487445       -13.2641
  53   2.0000      -0.431473       -11.7410
  54   2.0000      -0.389378       -10.5955
  55   2.0000      -0.344902        -9.3853
  56   2.0000      -0.343425        -9.3451
  57   0.0000       0.043412         1.1813
  58   0.0000       0.116790         3.1780
  59   0.0000       0.122904         3.3444
  60   0.0000       0.178205         4.8492
  61   0.0000       0.183047         4.9809

MULLIKEN ATOMIC CHARGES
-----------------------
   0 C :    0.100677
   1 C :    0.111608
   2 C :   -0.150546
   3 C :   -0.011918
   4 C :   -0.037974
   5 C :   -0.027232
   6 C :   -0.038153
   7 C :   -0.003627
   8 O :   -0.551708
   9 C :    0.197379
  10 C :    0.521385
  11 O :   -0.381060
  12 O :   -0.323400
  13 C :   -0.083987
  14 C :    0.317416
  15 O :   -0.380171
  16 H :    0.040118
  17 H :    0.059971
  18 H :    0.056463
  19 H :    0.068166
  20 H :    0.046258
  21 H :    0.044574
  22 H :    0.044530
  23 H :    0.058203
  24 H :    0.230062
  25 H :    0.092965
Sum of atomic charges:   -0.0000000

LOEWDIN ATOMIC CHARGES
----------------------
   0 C :   -0.004597
   1 C :    0.078287
   2 C :   -0.041730
   3 C :   -0.010405
   4 C :   -0.022925
   5 C :   -0.018634
   6 C :   -0.025487
   7 C :   -0.012808
   8 O :   -0.184228
   9 C :    0.087606
  10 C :    0.204181
  11 O :   -0.258643
  12 O :   -0.086659
  13 C :   -0.035366
  14 C :    0.149145
  15 O :   -0.240276
  16 H :    0.024899
  17 H :    0.034140
  18 H :    0.031811
  19 H :    0.034408
  20 H :    0.029909
  21 H :    0.027913
  22 H :    0.028845
  23 H :    0.032519
  24 H :    0.119277
  25 H :    0.058818

  Mayer bond orders larger than 0.100000
B(  0-C ,  1-C ) :   1.0282 B(  0-C , 16-H ) :   0.9744 B(  0-C , 17-H ) :   0.9705
B(  0-C , 18-H ) :   0.9765 B(  1-C ,  2-C ) :   0.9810 B(  1-C ,  8-O ) :   0.7788
B(  1-C , 14-C ) :   0.9344 B(  2-C ,  3-C ) :   1.4052 B(  2-C ,  7-C ) :   1.4402
B(  3-C ,  4-C ) :   1.4334 B(  3-C , 19-H ) :   0.9942 B(  4-C ,  5-C ) :   1.4078
B(  4-C , 20-H ) :   1.0001 B(  5-C ,  6-C ) :   1.4143 B(  5-C , 21-H ) :   0.9993
B(  6-C ,  7-C ) :   1.4189 B(  6-C , 22-H ) :   1.0004 B(  7-C , 23-H ) :   0.9988
B(  8-O ,  9-C ) :   1.0054 B(  9-C , 10-C ) :   0.9273 B(  9-C , 13-C ) :   1.7220
B( 10-C , 11-O ) :   2.0435 B( 10-C , 12-O ) :   1.2011 B( 12-O , 24-H ) :   0.9395
B( 13-C , 14-C ) :   1.0322 B( 13-C , 25-H ) :   1.0149 B( 14-C , 15-O ) :   2.0014

FINAL SINGLE POINT ENERGY      -759.105314164181

DIPOLE MOMENT
-------------
                                X             Y             Z
Electronic contribution:      8.51824      -0.17571      -5.56615
Nuclear contribution   :     -8.58471       1.09206       6.16358
                        -----------------------------------------
Total Dipole Moment    :     -0.06647       0.91635       0.59743
                        -----------------------------------------
Magnitude (a.u.)       :      1.09591
Magnitude (Debye)      :      2.78559

Rotational constants in cm-1:     0.031205     0.011962     0.010144
Rotational constants in MHz :   935.490024   358.621358   304.123908

                             ****ORCA TERMINATED NORMALLY****
TOTAL RUN TIME: 0 days 0 hours 0 minutes 10 seconds 652 msec
