                         Program Version 5.0.3 -  RELEASE  -
|  1> !RHF def2-SVP TightSCF PAL16
|  2> *xyz 0 1
|  3> C -2.852277115589835 3.371990575146206 0.05461649691096296
|  4> C -2.459225619493294 2.001568051406147 0.601959130192329
|  5> C -0.9689111668713976 1.7176813852220778 0.34303924687121085
|  6> C -0.6355008680130501 0.21892966457476096 0.24728888627690004
|  7> O 0.7263678792175913 0.05147189283663678 0.6863444072905361
|  8> C 1.3684975380905946 -1.072779108543825 0.23735351981327468
|  9> O 0.8749237333045641 -1.914286593500009 -0.50332834018025
| 10> C 2.7993251085735107 -1.1185276163593216 0.8141028554610853
| 11> O 3.0151546998447314 -0.1855702986166887 1.8774551511439526
| 12> C 3.8508353757342757 -0.9488959480290708 -0.2666723147030635
| 13> C 4.578482600533386 0.24378049013628864 -0.41374755318684736
| 14> C 5.534189171760676 0.3776655407697592 -1.4238267344666822
| 15> C 5.7706426174869065 -0.674435592531453 -2.3058098976636723
| 16> C 5.050150474430406 -1.8597937180610113 -2.18127720605187
| 17> C 4.097432428062007 -1.9967491866602451 -1.169631916045204
| 18> C -1.5792341285906935 -0.599935211892914 1.1299793825985778
| 19> C -3.0521776930438262 -0.4877106563492062 0.6628057913412404
| 20> C -3.9727357021018572 -0.6992034441934226 1.8774798405468887
| 21> C -3.35976287775128 -1.590643458478677 -0.36572997238282773
| 22> C -3.3406349399958297 0.8921792439949451 0.015094489366480997
| 23> H -2.2351552022102763 4.158849176480454 0.5009899696051543
| 24> H -3.899089354246655 3.5954770568672663 0.2843145068421484
| 25> H -2.727540608915313 3.419169291155076 -1.0324142885104732
| 26> H -2.618724326451398 2.0278686946988285 1.687821908860891
| 27> H -0.6392019412639584 2.19452631623118 -0.5912465591866166
| 28> H -0.3751268909276205 2.1958317919158583 1.133747152552708
| 29> H -0.7256369847982616 -0.08811775090956483 -0.8029425713003792
| 30> H 2.91902963779487 -2.106194289026259 1.276187533940348
| 31> H 2.292053945134506 0.4695670730669154 1.8018787272677348
| 32> H 4.419860993821612 1.0768256395906324 0.2682246292383247
| 33> H 6.0984196971633455 1.3023276681610045 -1.5167057169089895
| 34> H 6.516497783155123 -0.5699476576997321 -3.089397543233948
| 35> H 5.232278864064141 -2.6813144645597866 -2.8673095453920876
| 36> H 3.5460653225184093 -2.9326635722515286 -1.0911759856375847
| 37> H -1.4732880579806085 -0.2422586483330751 2.164855641928422
| 38> H -1.2628987171594912 -1.6512788308765194 1.1683871900316083
| 39> H -3.7743524172234193 -1.6637997888831755 2.3584131187658306
| 40> H -3.8273827317425657 0.08380790299189163 2.6291181557288525
| 41> H -5.028969922126066 -0.6841520966986062 1.5829177551119176
| 42> H -2.7133172042701093 -1.5070060308095776 -1.245335870973619
| 43> H -4.399571726670232 -1.5317150205645889 -0.7091165853455327
| 44> H -3.2062597036916007 -2.586630482342508 0.06383084483890092
| 45> H -3.1615836602956375 0.8456532036677897 -1.0672817820185163
| 46> H -4.401648309267043 1.1484388072585705 0.13257744968688853
| 47> *
| 48>
| 49>                          ****END OF INPUT****

CARTESIAN COORDINATES (ANGSTROEM)
---------------------------------
  C     -2.852277    3.371991    0.054616
  C     -2.459226    2.001568    0.601959
  C     -0.968911    1.717681    0.343039
  C     -0.635501    0.218930    0.247289
  O      0.726368    0.051472    0.686344
  C      1.368498   -1.072779    0.237354
  O      0.874924   -1.914287   -0.503328
  C      2.799325   -1.118528    0.814103
  O      3.015155   -0.185570    1.877455
  C      3.850835   -0.948896   -0.266672
  C      4.578483    0.243780   -0.413748
  C      5.534189    0.377666   -1.423827
  C      5.770643   -0.674436   -2.305810
  C      5.050150   -1.859794   -2.181277
  C      4.097432   -1.996749   -1.169632
  C     -1.579234   -0.599935    1.129979
  C     -3.052178   -0.487711    0.662806
  C     -3.972736   -0.699203    1.877480
  C     -3.359763   -1.590643   -0.365730
  C     -3.340635    0.892179    0.015094
  H     -2.235155    4.158849    0.500990
  H     -3.899089    3.595477    0.284315
  H     -2.727541    3.419169   -1.032414
  H     -2.618724    2.027869    1.687822
  H     -0.639202    2.194526   -0.591247
  H     -0.375127    2.195832    1.133747
  H     -0.725637   -0.088118   -0.802943
  H      2.919030   -2.106194    1.276188
  H      2.292054    0.469567    1.801879
  H      4.419861    1.076826    0.268225
  H      6.098420    1.302328   -1.516706
  H      6.516498   -0.569948   -3.089398
  H      5.232279   -2.681314   -2.867310
  H      3.546065   -2.932664   -1.091176
  H     -1.473288   -0.242259    2.164856
  H     -1.262899   -1.651279    1.168387
  H     -3.774352   -1.663800    2.358413
  H     -3.827383    0.083808    2.629118
  H     -5.028970   -0.684152    1.582918
  H     -2.713317   -1.507006   -1.245336
  H     -4.399572   -1.531715   -0.709117
  H     -3.206260   -2.586630    0.063831
  H     -3.161584    0.845653   -1.067282
  H     -4.401648    1.148439    0.132577

 Total Charge           Charge          ....    0
 Multiplicity           Mult            ....    1
 Number of Electrons    NEL             ....  150
 Basis Dimension        Dim             ....  400

ORBITAL ENERGIES
----------------

  NO   OCC          E(Eh)            E(eV)
   0   2.0000     -20.617229      -561.0233
   1   2.0000     -20.559639      -559.4562
   2   2.0000     -20.557280      -559.3920
   3   2.0000     -11.406147      -310.3770
   4   2.0000     -11.312698      -307.8342
   5   2.0000     -11.301463      -307.5284
   6   2.0000     -11.249232      -306.1072
   7   2.0000     -11.242195      -305.9157
   8   2.0000     -11.239805      -305.8507
   9   2.0000     -11.239580      -305.8445
  10   2.0000     -11.238408      -305.8126
  11   2.0000     -11.237573      -305.7899
  12   2.0000     -11.236871      -305.7708
  13   2.0000     -11.236265      -305.7543
  14   2.0000     -11.233843      -305.6884
  15   2.0000     -11.230329      -305.5928
  16   2.0000     -11.227705      -305.5214
  17   2.0000     -11.226416      -305.4863
  18   2.0000     -11.223992      -305.4203
  19   2.0000     -11.220297      -305.3198
  20   2.0000      -1.454018       -39.5659
  21   2.0000      -1.355560       -36.8867
  22   2.0000      -1.344964       -36.5983
  23   2.0000      -1.143515       -31.1166
  24   2.0000      -1.137007       -30.9395
  25   2.0000      -1.061858       -28.8946
  26   2.0000      -1.044568       -28.4241
  27   2.0000      -1.024982       -27.8912
  28   2.0000      -1.002707       -27.2851
  29   2.0000      -0.948268       -25.8037
  30   2.0000      -0.925322       -25.1793
  31   2.0000      -0.923532       -25.1306
  32   2.0000      -0.920860       -25.0579
  33   2.0000      -0.865829       -23.5604
  34   2.0000      -0.820526       -22.3276
  35   2.0000      -0.805298       -21.9133
  36   2.0000      -0.785017       -21.3614
  37   2.0000      -0.774686       -21.0803
  38   2.0000      -0.742314       -20.1994
  39   2.0000      -0.720590       -19.6083
  40   2.0000      -0.707641       -19.2559
  41   2.0000      -0.691974       -18.8296
  42   2.0000      -0.667950       -18.1758
  43   2.0000      -0.659006       -17.9325
  44   2.0000      -0.641467       -17.4552
  45   2.0000      -0.637965       -17.3599
  46   2.0000      -0.634388       -17.2626
  47   2.0000      -0.611638       -16.6435
  48   2.0000      -0.603155       -16.4127
  49   2.0000      -0.596568       -16.2334
  50   2.0000      -0.592992       -16.1361
  51   2.0000      -0.586702       -15.9650
  52   2.0000      -0.582031       -15.8379
  53   2.0000      -0.574696       -15.6383
  54   2.0000      -0.566485       -15.4149
  55   2.0000      -0.558693       -15.2028
  56   2.0000      -0.553831       -15.0705
  57   2.0000      -0.534840       -14.5537
  58   2.0000      -0.526111       -14.3162
  59   2.0000      -0.518220       -14.1015
  60   2.0000      -0.514137       -13.9904
  61   2.0000      -0.511881       -13.9290
  62   2.0000      -0.503845       -13.7103
  63   2.0000      -0.496840       -13.5197
  64   2.0000      -0.493703       -13.4343
  65   2.0000      -0.490933       -13.3590
  66   2.0000      -0.481540       -13.1034
  67   2.0000      -0.476312       -12.9611
  68   2.0000      -0.459433       -12.5018
  69   2.0000      -0.456424       -12.4199
  70   2.0000      -0.443202       -12.0601
  71   2.0000      -0.437726       -11.9111
  72   2.0000      -0.429478       -11.6867
  73   2.0000      -0.336507        -9.1568
  74   2.0000      -0.333272        -9.0688
  75   0.0000       0.118993         3.2380
  76   0.0000       0.132663         3.6099
  77   0.0000       0.157518         4.2863
  78   0.0000       0.169033         4.5996
  79   0.0000       0.182396         4.9632

MULLIKEN ATOMIC CHARGES
-----------------------
   0 C :    0.044604
   1 C :   -0.270939
   2 C :    0.075083
   3 C :    0.199161
   4 O :   -0.595335
   5 C :    0.525337
   6 O :   -0.411620
   7 C :    0.361631
   8 O :   -0.462597
   9 C :   -0.221593
  10 C :   -0.001665
  11 C :   -0.037754
  12 C :   -0.032313
  13 C :   -0.039431
  14 C :    0.002158
  15 C :    0.078781
  16 C :   -0.537924
  17 C :    0.081763
  18 C :    0.086469
  19 C :    0.105384
  20 H :    0.030860
  21 H :    0.030209
  22 H :    0.025610
  23 H :    0.033205
  24 H :    0.031989
  25 H :    0.038036
  26 H :    0.059328
  27 H :    0.069332
  28 H :    0.224543
  29 H :    0.043809
  30 H :    0.040769
  31 H :    0.041057
  32 H :    0.041504
  33 H :    0.047593
  34 H :    0.025790
  35 H :    0.048629
  36 H :    0.030001
  37 H :    0.024437
  38 H :    0.027675
  39 H :    0.032529
  40 H :    0.026714
  41 H :    0.029487
  42 H :    0.019259
  43 H :    0.028432
Sum of atomic charges:    0.0000000

LOEWDIN ATOMIC CHARGES
----------------------
   0 C :   -0.023204
   1 C :   -0.032638
   2 C :   -0.013453
   3 C :    0.122308
   4 O :   -0.192333
   5 C :    0.235400
   6 O :   -0.266769
   7 C :    0.102843
   8 O :   -0.185619
   9 C :   -0.050661
  10 C :   -0.012215
  11 C :   -0.026636
  12 C :   -0.023362
  13 C :   -0.024813
  14 C :   -0.012294
  15 C :   -0.013526
  16 C :   -0.059203
  17 C :   -0.017152
  18 C :   -0.016879
  19 C :   -0.004905
  20 H :    0.016021
  21 H :    0.015798
  22 H :    0.014054
  23 H :    0.011777
  24 H :    0.016551
  25 H :    0.019653
  26 H :    0.016686
  27 H :    0.037187
  28 H :    0.081742
  29 H :    0.028056
  30 H :    0.027061
  31 H :    0.026245
  32 H :    0.027408
  33 H :    0.029980
  34 H :    0.014535
  35 H :    0.021875
  36 H :    0.015458
  37 H :    0.011152
  38 H :    0.013869
  39 H :    0.014713
  40 H :    0.014053
  41 H :    0.014875
  42 H :    0.010296
  43 H :    0.016065

  Mayer bond orders larger than 0.100000
B(  0-C ,  1-C ) :   1.0420 B(  0-C , 20-H ) :   0.9870 B(  0-C , 21-H ) :   0.9860
B(  0-C , 22-H ) :   0.9794 B(  1-C ,  2-C ) :   0.9858 B(  1-C , 19-C ) :   1.0206
B(  1-C , 23-H ) :   0.9486 B(  2-C ,  3-C ) :   1.0224 B(  2-C , 24-H ) :   0.9752
B(  2-C , 25-H ) :   0.9634 B(  3-C ,  4-O ) :   0.7416 B(  3-C , 15-C ) :   1.0687
B(  3-C , 26-H ) :   0.9640 B(  4-O ,  5-C ) :   1.0408 B(  5-C ,  6-O ) :   1.9560
B(  5-C ,  7-C ) :   0.9298 B(  7-C ,  8-O ) :   0.9716 B(  7-C ,  9-C ) :   0.9740
B(  7-C , 27-H ) :   0.9636 B(  8-O , 28-H ) :   0.9465 B(  9-C , 10-C ) :   1.4289
B(  9-C , 14-C ) :   1.4009 B( 10-C , 11-C ) :   1.4186 B( 10-C , 29-H ) :   0.9987
B( 11-C , 12-C ) :   1.4150 B( 11-C , 30-H ) :   1.0009 B( 12-C , 13-C ) :   1.4089
B( 12-C , 31-H ) :   0.9994 B( 13-C , 14-C ) :   1.4349 B( 13-C , 32-H ) :   1.0006
B( 14-C , 33-H ) :   0.9989 B( 15-C , 16-C ) :   0.9612 B( 15-C , 34-H ) :   0.9599
B( 15-C , 35-H ) :   0.9673 B( 16-C , 17-C ) :   1.0000 B( 16-C , 18-C ) :   0.9977
B( 16-C , 19-C ) :   0.9576 B( 17-C , 36-H ) :   0.9856 B( 17-C , 37-H ) :   0.9836
B( 17-C , 38-H ) :   0.9845 B( 18-C , 39-H ) :   0.9830 B( 18-C , 40-H ) :   0.9851
B( 18-C , 41-H ) :   0.9846 B( 19-C , 42-H ) :   0.9681 B( 19-C , 43-H ) :   0.9730

FINAL SINGLE POINT ENERGY      -881.683154948054

DIPOLE MOMENT
-------------
                                X             Y             Z
Electronic contribution:     29.03793      -7.81517      -2.13668
Nuclear contribution   :    -29.79803       8.48376       2.04280
                        -----------------------------------------
Total Dipole Moment    :     -0.76009       0.66859      -0.09387
                        -----------------------------------------
Magnitude (a.u.)       :      1.01664
Magnitude (Debye)      :      2.58411

Rotational constants in cm-1:     0.023378     0.004934     0.004627
Rotational constants in MHz :   700.852598   147.905594   138.708692

                             ****ORCA TERMINATED NORMALLY****
TOTAL RUN TIME: 0 days 0 hours 0 minutes 24 seconds 797 msec
