                         Program Version 5.0.3 -  RELEASE  -
|  1> !RHF def2-SVP TightSCF PAL16
|  2> *xyz 0 1
|  3> C 3.6841554392696056 -1.708556841852623 -1.2213046100499534
|  4> O 3.6823516087281836 -0.3678124298874957 -0.7493166132456764
|  5> C 2.4674950015839423 0.20805287201012748 -0.48678285939516275
|  6> C 1.2337532830817923 -0.3716428199173286 -0.7926264487045607
|  7> C 0.02484346528700502 0.2864628221834108 -0.4932186647166393
|  8> C -1.2880693193759216 -0.3924551707770308 -0.8353510366555265
|  9> C -1.8738102022540468 -1.2010184621852393 0.3408961226576936
| 10> C -3.3549560583386677 -1.4967031746996935 0.1008633060746346
| 11> N -1.1561063173483195 -2.4724513323557207 0.5237924966934611
| 12> C 0.05308677985133911 1.5422378644509567 0.13909610261441116
| 13> O -1.1678188231937479 2.099737111045935 0.41715302927605735
| 14> C -1.1788480599885767 3.3527452876739097 1.0894598399984863
| 15> C 1.2833540473929208 2.1302527123672768 0.437377391983384
| 16> C 2.477168151699621 1.4690978217395299 0.1228986502876785
| 17> Br 4.109306842213113 2.3428160456264786 0.566047673939725
| 18> H 3.183642341030379 -2.379757276072962 -0.5154140204565711
| 19> H 4.72636354607919 -2.0316404636499557 -1.304385950795273
| 20> H 3.23618142395024 -1.7744121116149956 -2.218108070840245
| 21> H 1.1741984601292679 -1.3494393033467158 -1.2608009980301387
| 22> H -2.0041751703703468 0.37250266289186723 -1.1632982657271937
| 23> H -1.1526385152672818 -1.0374469125881096 -1.7146169794010604
| 24> H -1.784965335951584 -0.6244457569205454 1.269327841466117
| 25> H -3.782640949016093 -2.0673004007641094 0.9327925969878531
| 26> H -3.50659969067298 -2.0724046576086375 -0.8191529055104962
| 27> H -3.924759652330251 -0.5652832099928865 0.01321107629317481
| 28> H -1.3285153298960772 -3.0820513956173103 -0.27432583513224074
| 29> H -1.5370916437863158 -2.9577017429279424 1.3356122585927188
| 30> H -0.7036885889751252 3.27796072858257 2.073127770126787
| 31> H -0.709871366450791 4.131579650672522 0.4793093668579494
| 32> H -2.2236306555620042 3.6378624971908766 1.246185438499816
| 33> H 1.3422852884815433 3.101215386343792 0.9165160971386187
| 34> *
| 35>
| 36>                          ****END OF INPUT****

CARTESIAN COORDINATES (ANGSTROEM)
---------------------------------
  C      3.684155   -1.708557   -1.221305
  O      3.682352   -0.367812   -0.749317
  C      2.467495    0.208053   -0.486783
  C      1.233753   -0.371643   -0.792626
  C      0.024843    0.286463   -0.493219
  C     -1.288069   -0.392455   -0.835351
  C     -1.873810   -1.201018    0.340896
  C     -3.354956   -1.496703    0.100863
  N     -1.156106   -2.472451    0.523792
  C      0.053087    1.542238    0.139096
  O     -1.167819    2.099737    0.417153
  C     -1.178848    3.352745    1.089460
  C      1.283354    2.130253    0.437377
  C      2.477168    1.469098    0.122899
  Br     4.109307    2.342816    0.566048
  H      3.183642   -2.379757   -0.515414
  H      4.726364   -2.031640   -1.304386
  H      3.236181   -1.774412   -2.218108
  H      1.174198   -1.349439   -1.260801
  H     -2.004175    0.372503   -1.163298
  H     -1.152639   -1.037447   -1.714617
  H     -1.784965   -0.624446    1.269328
  H     -3.782641   -2.067300    0.932793
  H     -3.506600   -2.072405   -0.819153
  H     -3.924760   -0.565283    0.013211
  H     -1.328515   -3.082051   -0.274326
  H     -1.537092   -2.957702    1.335612
  H     -0.703689    3.277961    2.073128
  H     -0.709871    4.131580    0.479309
  H     -2.223631    3.637862    1.246185
  H      1.342285    3.101215    0.916516

 Total Charge           Charge          ....    0
 Multiplicity           Mult            ....    1
 Number of Electrons    NEL             ....  140
 Basis Dimension        Dim             ....  308

ORBITAL ENERGIES
----------------

  NO   OCC          E(Eh)            E(eV)
   0   2.0000    -489.958701    -13332.4541
   1   2.0000     -65.126849     -1772.1917
   2   2.0000     -58.498965     -1591.8378
   3   2.0000     -58.497329     -1591.7933
   4   2.0000     -58.497289     -1591.7922
   5   2.0000     -20.580226      -560.0164
   6   2.0000     -20.573647      -559.8374
   7   2.0000     -15.536582      -422.7719
   8   2.0000     -11.305158      -307.6290
   9   2.0000     -11.299452      -307.4737
  10   2.0000     -11.296261      -307.3869
  11   2.0000     -11.289848      -307.2124
  12   2.0000     -11.286473      -307.1205
  13   2.0000     -11.256797      -306.3130
  14   2.0000     -11.248361      -306.0835
  15   2.0000     -11.245345      -306.0014
  16   2.0000     -11.240516      -305.8700
  17   2.0000     -11.231244      -305.6177
  18   2.0000     -11.219900      -305.3090
  19   2.0000      -9.818280      -267.1690
  20   2.0000      -7.435218      -202.3226
  21   2.0000      -7.425816      -202.0667
  22   2.0000      -7.425725      -202.0643
  23   2.0000      -3.177993       -86.4776
  24   2.0000      -3.173822       -86.3641
  25   2.0000      -3.173526       -86.3560
  26   2.0000      -3.163256       -86.0766
  27   2.0000      -3.163253       -86.0765
  28   2.0000      -1.392597       -37.8945
  29   2.0000      -1.387222       -37.7482
  30   2.0000      -1.174146       -31.9501
  31   2.0000      -1.147864       -31.2350
  32   2.0000      -1.068294       -29.0698
  33   2.0000      -1.012094       -27.5405
  34   2.0000      -1.007537       -27.4165
  35   2.0000      -0.971021       -26.4228
  36   2.0000      -0.955735       -26.0069
  37   2.0000      -0.928891       -25.2764
  38   2.0000      -0.888758       -24.1843
  39   2.0000      -0.822591       -22.3838
  40   2.0000      -0.799326       -21.7508
  41   2.0000      -0.776191       -21.1212
  42   2.0000      -0.706787       -19.2327
  43   2.0000      -0.701991       -19.1021
  44   2.0000      -0.691775       -18.8242
  45   2.0000      -0.664025       -18.0690
  46   2.0000      -0.660157       -17.9638
  47   2.0000      -0.653169       -17.7736
  48   2.0000      -0.623190       -16.9578
  49   2.0000      -0.619092       -16.8464
  50   2.0000      -0.604874       -16.4595
  51   2.0000      -0.590498       -16.0683
  52   2.0000      -0.571875       -15.5615
  53   2.0000      -0.568191       -15.4613
  54   2.0000      -0.559093       -15.2137
  55   2.0000      -0.544326       -14.8119
  56   2.0000      -0.535149       -14.5622
  57   2.0000      -0.530746       -14.4423
  58   2.0000      -0.513311       -13.9679
  59   2.0000      -0.507616       -13.8129
  60   2.0000      -0.502438       -13.6720
  61   2.0000      -0.498291       -13.5592
  62   2.0000      -0.483710       -13.1624
  63   2.0000      -0.466751       -12.7009
  64   2.0000      -0.458177       -12.4676
  65   2.0000      -0.410845       -11.1797
  66   2.0000      -0.397630       -10.8201
  67   2.0000      -0.385498       -10.4899
  68   2.0000      -0.331313        -9.0155
  69   2.0000      -0.292646        -7.9633
  70   0.0000       0.117290         3.1916
  71   0.0000       0.156487         4.2582
  72   0.0000       0.167588         4.5603
  73   0.0000       0.173313         4.7161
  74   0.0000       0.182757         4.9731

MULLIKEN ATOMIC CHARGES
-----------------------
   0 C :    0.226056
   1 O :   -0.550409
   2 C :    0.327780
   3 C :   -0.089256
   4 C :   -0.194032
   5 C :    0.147583
   6 C :   -0.009140
   7 C :    0.005043
   8 N :   -0.343184
   9 C :    0.332411
  10 O :   -0.572351
  11 C :    0.227100
  12 C :   -0.077941
  13 C :   -0.114564
  14 Br:   -0.019531
  15 H :    0.040271
  16 H :    0.052189
  17 H :    0.029904
  18 H :    0.030444
  19 H :    0.047431
  20 H :    0.016904
  21 H :    0.044697
  22 H :    0.023078
  23 H :    0.015649
  24 H :    0.028123
  25 H :    0.103647
  26 H :    0.112188
  27 H :    0.036051
  28 H :    0.036302
  29 H :    0.049624
  30 H :    0.037934
Sum of atomic charges:    0.0000000

LOEWDIN ATOMIC CHARGES
----------------------
   0 C :    0.134210
   1 O :   -0.199123
   2 C :    0.069212
   3 C :   -0.048013
   4 C :   -0.025729
   5 C :   -0.001363
   6 C :    0.043507
   7 C :   -0.045691
   8 N :   -0.139447
   9 C :    0.071564
  10 O :   -0.203208
  11 C :    0.133554
  12 C :   -0.066497
  13 C :   -0.139179
  14 Br:    0.082619
  15 H :    0.011173
  16 H :    0.021923
  17 H :    0.006222
  18 H :    0.029946
  19 H :    0.027113
  20 H :    0.016538
  21 H :    0.016490
  22 H :    0.011147
  23 H :    0.010337
  24 H :    0.015588
  25 H :    0.045092
  26 H :    0.051819
  27 H :    0.009215
  28 H :    0.009179
  29 H :    0.020678
  30 H :    0.031125

  Mayer bond orders larger than 0.100000
B(  0-C ,  1-O ) :   0.8670 B(  0-C , 15-H ) :   0.9847 B(  0-C , 16-H ) :   0.9921
B(  0-C , 17-H ) :   0.9846 B(  1-O ,  2-C ) :   1.0227 B(  2-C ,  3-C ) :   1.3674
B(  2-C , 13-C ) :   1.4657 B(  3-C ,  4-C ) :   1.4283 B(  3-C , 18-H ) :   1.0033
B(  4-C ,  5-C ) :   1.0049 B(  4-C ,  9-C ) :   1.4215 B(  5-C ,  6-C ) :   0.9907
B(  5-C , 19-H ) :   0.9677 B(  5-C , 20-H ) :   0.9601 B(  6-C ,  7-C ) :   1.0318
B(  6-C ,  8-N ) :   0.9723 B(  6-C , 21-H ) :   0.9662 B(  7-C , 22-H ) :   0.9876
B(  7-C , 23-H ) :   0.9768 B(  7-C , 24-H ) :   0.9781 B(  8-N , 25-H ) :   0.9758
B(  8-N , 26-H ) :   0.9793 B(  9-C , 10-O ) :   0.9832 B(  9-C , 12-C ) :   1.3896
B( 10-O , 11-C ) :   0.8674 B( 11-C , 27-H ) :   0.9843 B( 11-C , 28-H ) :   0.9845
B( 11-C , 29-H ) :   0.9926 B( 12-C , 13-C ) :   1.4113 B( 12-C , 30-H ) :   1.0043
B( 13-C , 14-Br) :   1.0060

FINAL SINGLE POINT ENERGY     -3201.630506464842

DIPOLE MOMENT
-------------
                                X             Y             Z
Electronic contribution:     53.32755      30.85528       6.68380
Nuclear contribution   :    -54.66828     -31.46367      -6.76784
                        -----------------------------------------
Total Dipole Moment    :     -1.34073      -0.60839      -0.08405
                        -----------------------------------------
Magnitude (a.u.)       :      1.47471
Magnitude (Debye)      :      3.74841

Rotational constants in cm-1:     0.022405     0.008398     0.006396
Rotational constants in MHz :   671.675607   251.758965   191.749058

                             ****ORCA TERMINATED NORMALLY****
TOTAL RUN TIME: 0 days 0 hours 0 minutes 14 seconds 160 msec
