                         Program Version 5.0.3 -  RELEASE  -
|  1> !RHF def2-SVP TightSCF PAL16
|  2> *xyz 0 1
|  3> C -1.2427276374032212 -2.8428816775764654 -1.6945872080887223
|  4> O -1.658466489051448 -2.0152702568737237 -0.6177317950587586
|  5> C -2.990113376685769 -1.9928047138262703 -0.304392247698426
|  6> C -3.9819489487941766 -2.6687743299343123 -1.0249758727876315
|  7> C -5.320063916268117 -2.601959852570211 -0.6293947377846388
|  8> C -5.680453756823861 -1.8634615414588163 0.49213870000117255
|  9> C -4.70233688827122 -1.1852016305493358 1.2164985186503483
| 10> C -3.3505446008558435 -1.2287258454019812 0.8223756931318382
| 11> C -2.3241921587201273 -0.48153605367336944 1.654823360623671
| 12> N -1.5432234730638987 0.5329371369914654 0.9304906341817714
| 13> C -0.17591082807940722 0.2916665028291791 0.7538103992330719
| 14> O 0.4382857139639172 -0.5812425519507842 1.3698095093454867
| 15> C 0.5201222484948105 1.1370072979275574 -0.3137093527978578
| 16> C 1.798101558001689 0.4808429894437703 -0.8490907958176704
| 17> C 2.99257470585701 0.6680131436713228 0.09862661094380883
| 18> N 4.250201726340514 0.16458721688420888 -0.4830842197035975
| 19> C 5.403099401480128 0.634478524290199 0.3189799033710592
| 20> C 6.729153517485416 0.07398410450315016 -0.21802682052785533
| 21> O 6.721686919138504 -1.3590247314279922 -0.22201411033374358
| 22> C 5.6369692017534225 -1.8359847900268036 -1.0290199875216062
| 23> C 4.2833222229807255 -1.316366909373816 -0.5152652881503283
| 24> C -2.1259188561159115 1.8278018650166636 0.7841514624033624
| 25> C -1.4754881341691035 2.9615478306810625 1.2911604574867304
| 26> C -2.0536216959167004 4.228723665358849 1.177302843368055
| 27> C -3.292352049712124 4.3760955193426 0.5595934995219742
| 28> C -3.953783713223897 3.256972469052253 0.060832281270702476
| 29> C -3.3758397401398104 1.9895968626240554 0.17762917188198826
| 30> H -1.4861889022554802 -3.893434594397018 -1.5044816382593529
| 31> H -1.6721442186939364 -2.5013139532149626 -2.642281333455979
| 32> H -0.1544348984449448 -2.762915313511759 -1.7763438343059677
| 33> H -3.745689817128271 -3.2605381465023413 -1.9032989321669436
| 34> H -6.079574336978103 -3.132562886769867 -1.1977033956096355
| 35> H -6.720831500695265 -1.8163877836314755 0.8032236535618862
| 36> H -5.00049988443159 -0.6116927734818601 2.0922811272673516
| 37> H -1.6639774978649509 -1.2336827688246563 2.1031132406573696
| 38> H -2.8068620181895003 0.01867575242474797 2.5051297015607576
| 39> H 0.7603032476019138 2.1249476390366495 0.08678297128766375
| 40> H -0.17265386956766332 1.2607243856416974 -1.1549497921476428
| 41> H 1.6097061063494702 -0.5813564853088592 -1.0404897184505915
| 42> H 2.040888825565553 0.9430239616482583 -1.8144203784353097
| 43> H 2.8040716596370774 0.20555691532356668 1.073779053546605
| 44> H 3.0985737630317116 1.7458444897816694 0.2779710405091796
| 45> H 5.452310417133245 1.729036216664398 0.29431854570961075
| 46> H 5.282944630084367 0.323486559302812 1.3649440710887728
| 47> H 6.93353099408844 0.4379559333099641 -1.2322427005534924
| 48> H 7.555127459439373 0.3984312856389198 0.4226363134566473
| 49> H 5.6531419762929165 -2.930117277662412 -0.9910002016132052
| 50> H 5.805352390032414 -1.5381236871358654 -2.071396634484873
| 51> H 3.501734201434017 -1.7044792333595362 -1.1759204588597674
| 52> H 4.109691374801545 -1.7159108361673723 0.49187447139753904
| 53> H -0.5299516643461752 2.870723460410117 1.8197173023151982
| 54> H -1.5397093127389758 5.098367397818763 1.5797151023850897
| 55> H -3.74285364621308 5.361380747159918 0.46850864297657363
| 56> H -4.918138268009142 3.368032486833838 -0.4288375536200526
| 57> H -3.9003981621361166 1.1453082649995587 -0.2575592749004263
| 58> *
| 59>
| 60>                          ****END OF INPUT****

CARTESIAN COORDINATES (ANGSTROEM)
---------------------------------
  C     -1.242728   -2.842882   -1.694587
  O     -1.658466   -2.015270   -0.617732
  C     -2.990113   -1.992805   -0.304392
  C     -3.981949   -2.668774   -1.024976
  C     -5.320064   -2.601960   -0.629395
  C     -5.680454   -1.863462    0.492139
  C     -4.702337   -1.185202    1.216499
  C     -3.350545   -1.228726    0.822376
  C     -2.324192   -0.481536    1.654823
  N     -1.543223    0.532937    0.930491
  C     -0.175911    0.291667    0.753810
  O      0.438286   -0.581243    1.369810
  C      0.520122    1.137007   -0.313709
  C      1.798102    0.480843   -0.849091
  C      2.992575    0.668013    0.098627
  N      4.250202    0.164587   -0.483084
  C      5.403099    0.634479    0.318980
  C      6.729154    0.073984   -0.218027
  O      6.721687   -1.359025   -0.222014
  C      5.636969   -1.835985   -1.029020
  C      4.283322   -1.316367   -0.515265
  C     -2.125919    1.827802    0.784151
  C     -1.475488    2.961548    1.291160
  C     -2.053622    4.228724    1.177303
  C     -3.292352    4.376096    0.559593
  C     -3.953784    3.256972    0.060832
  C     -3.375840    1.989597    0.177629
  H     -1.486189   -3.893435   -1.504482
  H     -1.672144   -2.501314   -2.642281
  H     -0.154435   -2.762915   -1.776344
  H     -3.745690   -3.260538   -1.903299
  H     -6.079574   -3.132563   -1.197703
  H     -6.720832   -1.816388    0.803224
  H     -5.000500   -0.611693    2.092281
  H     -1.663977   -1.233683    2.103113
  H     -2.806862    0.018676    2.505130
  H      0.760303    2.124948    0.086783
  H     -0.172654    1.260724   -1.154950
  H      1.609706   -0.581356   -1.040490
  H      2.040889    0.943024   -1.814420
  H      2.804072    0.205557    1.073779
  H      3.098574    1.745844    0.277971
  H      5.452310    1.729036    0.294319
  H      5.282945    0.323487    1.364944
  H      6.933531    0.437956   -1.232243
  H      7.555127    0.398431    0.422636
  H      5.653142   -2.930117   -0.991000
  H      5.805352   -1.538124   -2.071397
  H      3.501734   -1.704479   -1.175920
  H      4.109691   -1.715911    0.491874
  H     -0.529952    2.870723    1.819717
  H     -1.539709    5.098367    1.579715
  H     -3.742854    5.361381    0.468509
  H     -4.918138    3.368032   -0.428838
  H     -3.900398    1.145308   -0.257559

 Total Charge           Charge          ....    0
 Multiplicity           Mult            ....    1
 Number of Electrons    NEL             ....  198
 Basis Dimension        Dim             ....  518

ORBITAL ENERGIES
----------------

  NO   OCC          E(Eh)            E(eV)
   0   2.0000     -20.582496      -560.0782
   1   2.0000     -20.536327      -558.8219
   2   2.0000     -20.515980      -558.2682
   3   2.0000     -15.585036      -424.0904
   4   2.0000     -15.539151      -422.8418
   5   2.0000     -11.353487      -308.9441
   6   2.0000     -11.309485      -307.7467
   7   2.0000     -11.296788      -307.4012
   8   2.0000     -11.289060      -307.1909
   9   2.0000     -11.270455      -306.6847
  10   2.0000     -11.270335      -306.6814
  11   2.0000     -11.269497      -306.6586
  12   2.0000     -11.248584      -306.0895
  13   2.0000     -11.247274      -306.0539
  14   2.0000     -11.247085      -306.0488
  15   2.0000     -11.246679      -306.0377
  16   2.0000     -11.246666      -306.0373
  17   2.0000     -11.246455      -306.0316
  18   2.0000     -11.244834      -305.9875
  19   2.0000     -11.243295      -305.9456
  20   2.0000     -11.242707      -305.9296
  21   2.0000     -11.242463      -305.9230
  22   2.0000     -11.241773      -305.9042
  23   2.0000     -11.240012      -305.8563
  24   2.0000     -11.235397      -305.7307
  25   2.0000     -11.235111      -305.7229
  26   2.0000     -11.220965      -305.3380
  27   2.0000      -1.396068       -37.9889
  28   2.0000      -1.356844       -36.9216
  29   2.0000      -1.342134       -36.5213
  30   2.0000      -1.241120       -33.7726
  31   2.0000      -1.200468       -32.6664
  32   2.0000      -1.146429       -31.1959
  33   2.0000      -1.136848       -30.9352
  34   2.0000      -1.056236       -28.7416
  35   2.0000      -1.038396       -28.2562
  36   2.0000      -1.013468       -27.5779
  37   2.0000      -1.012383       -27.5483
  38   2.0000      -1.010139       -27.4873
  39   2.0000      -1.002553       -27.2808
  40   2.0000      -0.965698       -26.2780
  41   2.0000      -0.943147       -25.6643
  42   2.0000      -0.917878       -24.9767
  43   2.0000      -0.879085       -23.9211
  44   2.0000      -0.859154       -23.3788
  45   2.0000      -0.840652       -22.8753
  46   2.0000      -0.828782       -22.5523
  47   2.0000      -0.820563       -22.3287
  48   2.0000      -0.806540       -21.9471
  49   2.0000      -0.790989       -21.5239
  50   2.0000      -0.761288       -20.7157
  51   2.0000      -0.752482       -20.4761
  52   2.0000      -0.721171       -19.6241
  53   2.0000      -0.696787       -18.9605
  54   2.0000      -0.683481       -18.5985
  55   2.0000      -0.678847       -18.4724
  56   2.0000      -0.672706       -18.3053
  57   2.0000      -0.663845       -18.0641
  58   2.0000      -0.661418       -17.9981
  59   2.0000      -0.654018       -17.7967
  60   2.0000      -0.642325       -17.4786
  61   2.0000      -0.634078       -17.2541
  62   2.0000      -0.629145       -17.1199
  63   2.0000      -0.628611       -17.1054
  64   2.0000      -0.623784       -16.9740
  65   2.0000      -0.619417       -16.8552
  66   2.0000      -0.613746       -16.7009
  67   2.0000      -0.601350       -16.3636
  68   2.0000      -0.596320       -16.2267
  69   2.0000      -0.590967       -16.0810
  70   2.0000      -0.586750       -15.9663
  71   2.0000      -0.585578       -15.9344
  72   2.0000      -0.565482       -15.3876
  73   2.0000      -0.556664       -15.1476
  74   2.0000      -0.552010       -15.0210
  75   2.0000      -0.536395       -14.5961
  76   2.0000      -0.531624       -14.4662
  77   2.0000      -0.528721       -14.3872
  78   2.0000      -0.520948       -14.1757
  79   2.0000      -0.517626       -14.0853
  80   2.0000      -0.513550       -13.9744
  81   2.0000      -0.509440       -13.8626
  82   2.0000      -0.507077       -13.7983
  83   2.0000      -0.500654       -13.6235
  84   2.0000      -0.496615       -13.5136
  85   2.0000      -0.491637       -13.3781
  86   2.0000      -0.484663       -13.1883
  87   2.0000      -0.476377       -12.9629
  88   2.0000      -0.472549       -12.8587
  89   2.0000      -0.461441       -12.5564
  90   2.0000      -0.447647       -12.1811
  91   2.0000      -0.418887       -11.3985
  92   2.0000      -0.406238       -11.0543
  93   2.0000      -0.402924       -10.9641
  94   2.0000      -0.353420        -9.6170
  95   2.0000      -0.347971        -9.4688
  96   2.0000      -0.340103        -9.2547
  97   2.0000      -0.323863        -8.8128
  98   2.0000      -0.316713        -8.6182
  99   0.0000       0.115209         3.1350
 100   0.0000       0.118175         3.2157
 101   0.0000       0.124422         3.3857
 102   0.0000       0.143524         3.9055
 103   0.0000       0.164644         4.4802

MULLIKEN ATOMIC CHARGES
-----------------------
   0 C :    0.230029
   1 O :   -0.562239
   2 C :    0.370829
   3 C :   -0.155205
   4 C :    0.000645
   5 C :   -0.059976
   6 C :   -0.010925
   7 C :   -0.288430
   8 C :    0.386758
   9 N :   -0.641735
  10 C :    0.476113
  11 O :   -0.445579
  12 C :   -0.096424
  13 C :   -0.002228
  14 C :    0.170269
  15 N :   -0.666530
  16 C :    0.125108
  17 C :    0.302010
  18 O :   -0.610655
  19 C :    0.302605
  20 C :    0.123170
  21 C :    0.187615
  22 C :   -0.065799
  23 C :   -0.026818
  24 C :   -0.040504
  25 C :   -0.022655
  26 C :   -0.059766
  27 H :    0.036098
  28 H :    0.031779
  29 H :    0.053483
  30 H :    0.035225
  31 H :    0.043004
  32 H :    0.037206
  33 H :    0.037712
  34 H :    0.091648
  35 H :    0.027489
  36 H :    0.059662
  37 H :    0.069348
  38 H :    0.041783
  39 H :    0.032835
  40 H :    0.044328
  41 H :    0.006914
  42 H :    0.028571
  43 H :    0.013178
  44 H :    0.015761
  45 H :    0.030586
  46 H :    0.031214
  47 H :    0.014123
  48 H :    0.031230
  49 H :    0.022908
  50 H :    0.046540
  51 H :    0.044275
  52 H :    0.042082
  53 H :    0.044220
  54 H :    0.067114
Sum of atomic charges:   -0.0000000

LOEWDIN ATOMIC CHARGES
----------------------
   0 C :    0.134976
   1 O :   -0.192001
   2 C :    0.102880
   3 C :   -0.081187
   4 C :   -0.009162
   5 C :   -0.054495
   6 C :   -0.008204
   7 C :   -0.071270
   8 C :    0.104258
   9 N :   -0.128522
  10 C :    0.206992
  11 O :   -0.298845
  12 C :   -0.041122
  13 C :   -0.011495
  14 C :    0.063202
  15 N :   -0.214005
  16 C :    0.049299
  17 C :    0.125651
  18 O :   -0.274004
  19 C :    0.125649
  20 C :    0.051282
  21 C :    0.041907
  22 C :   -0.038423
  23 C :   -0.018115
  24 C :   -0.033982
  25 C :   -0.015616
  26 C :   -0.030596
  27 H :    0.009907
  28 H :    0.007082
  29 H :    0.021488
  30 H :    0.026921
  31 H :    0.028676
  32 H :    0.025270
  33 H :    0.027843
  34 H :    0.042109
  35 H :    0.016539
  36 H :    0.028951
  37 H :    0.032826
  38 H :    0.015515
  39 H :    0.017902
  40 H :    0.003697
  41 H :    0.004063
  42 H :    0.012910
  43 H :   -0.002232
  44 H :    0.001584
  45 H :    0.014934
  46 H :    0.015232
  47 H :    0.000973
  48 H :    0.012658
  49 H :    0.001883
  50 H :    0.027679
  51 H :    0.029119
  52 H :    0.026898
  53 H :    0.029319
  54 H :    0.035200

  Mayer bond orders larger than 0.100000
B(  0-C ,  1-O ) :   0.8663 B(  0-C , 27-H ) :   0.9852 B(  0-C , 28-H ) :   0.9843
B(  0-C , 29-H ) :   0.9921 B(  1-O ,  2-C ) :   1.0085 B(  2-C ,  3-C ) :   1.3799
B(  2-C ,  7-C ) :   1.3976 B(  3-C ,  4-C ) :   1.3888 B(  3-C , 30-H ) :   1.0065
B(  4-C ,  5-C ) :   1.4298 B(  4-C , 31-H ) :   0.9988 B(  5-C ,  6-C ) :   1.4032
B(  5-C , 32-H ) :   1.0024 B(  6-C ,  7-C ) :   1.4629 B(  6-C , 33-H ) :   1.0020
B(  7-C ,  8-C ) :   0.9880 B(  8-C ,  9-N ) :   0.8727 B(  8-C , 34-H ) :   0.9594
B(  8-C , 35-H ) :   0.9808 B(  9-N , 10-C ) :   1.0370 B(  9-N , 21-C ) :   0.9070
B( 10-C , 11-O ) :   1.9252 B( 10-C , 12-C ) :   0.9609 B( 12-C , 13-C ) :   1.0645
B( 12-C , 36-H ) :   0.9513 B( 12-C , 37-H ) :   0.9648 B( 13-C , 14-C ) :   1.0219
B( 13-C , 38-H ) :   0.9653 B( 13-C , 39-H ) :   0.9720 B( 14-C , 15-N ) :   0.9326
B( 14-C , 40-H ) :   0.9721 B( 14-C , 41-H ) :   0.9730 B( 15-N , 16-C ) :   0.9311
B( 15-N , 20-C ) :   0.9192 B( 16-C , 17-C ) :   1.0521 B( 16-C , 42-H ) :   0.9730
B( 16-C , 43-H ) :   0.9570 B( 17-C , 18-O ) :   0.8957 B( 17-C , 44-H ) :   0.9686
B( 17-C , 45-H ) :   0.9777 B( 18-O , 19-C ) :   0.8948 B( 19-C , 20-C ) :   1.0533
B( 19-C , 46-H ) :   0.9779 B( 19-C , 47-H ) :   0.9682 B( 20-C , 48-H ) :   0.9729
B( 20-C , 49-H ) :   0.9590 B( 21-C , 22-C ) :   1.4110 B( 21-C , 26-C ) :   1.4240
B( 22-C , 23-C ) :   1.4162 B( 22-C , 50-H ) :   0.9982 B( 23-C , 24-C ) :   1.4119
B( 23-C , 51-H ) :   0.9964 B( 24-C , 25-C ) :   1.4121 B( 24-C , 52-H ) :   1.0012
B( 25-C , 26-C ) :   1.4160 B( 25-C , 53-H ) :   0.9975 B( 26-C , 54-H ) :   1.0014

FINAL SINGLE POINT ENERGY     -1181.977442982172

DIPOLE MOMENT
-------------
                                X             Y             Z
Electronic contribution:    -17.76903       0.81571       5.90199
Nuclear contribution   :     16.20163      -0.14968      -6.76858
                        -----------------------------------------
Total Dipole Moment    :     -1.56739       0.66603      -0.86659
                        -----------------------------------------
Magnitude (a.u.)       :      1.91084
Magnitude (Debye)      :      4.85697

Rotational constants in cm-1:     0.009445     0.003068     0.002456
Rotational constants in MHz :   283.155734    91.972478    73.635464

                             ****ORCA TERMINATED NORMALLY****
TOTAL RUN TIME: 0 days 0 hours 0 minutes 45 seconds 438 msec
