                         Program Version 5.0.3 -  RELEASE  -
|  1> !RHF def2-SVP TightSCF PAL16
|  2> *xyz 0 1
|  3> C -2.2821056066606307 2.5243254542457807 1.291109470849278
|  4> C -1.6861000802763633 1.451736199681464 0.37898593720023854
|  5> C -0.2122132676468657 1.2138243668162854 0.7231751016434707
|  6> C 0.4045138715480612 0.10796449368162789 -0.13693320254144775
|  7> O 1.7383936232824648 -0.17856214853687946 0.32921550145766476
|  8> C 2.728138052751882 0.6227297381238834 -0.14822544228423382
|  9> O 2.5721115492712987 1.5741124879303918 -0.9064148595203884
| 10> C 4.089575029896965 0.23868700324540323 0.4378668712068548
| 11> C 4.403261121968923 -1.2331633727427609 0.23023910476755408
| 12> O 5.142508804637313 0.9969680744787884 -0.16218045567034295
| 13> C -0.4038849076282737 -1.1885762899147916 -0.016305458324845135
| 14> C -1.9014688107229012 -1.0152697898705358 -0.3468917829626725
| 15> C -2.6456749530123838 -2.3156162849606035 0.012431642622748573
| 16> C -2.100027310499251 -0.7593110735830808 -1.8532588974754314
| 17> C -2.491011872743905 0.1462690407428359 0.48698941172963944
| 18> H -2.2478198412841395 2.218719516271172 2.3423556935628236
| 19> H -1.7311274465048234 3.4657811057579218 1.1942973720472714
| 20> H -3.327254024113497 2.7195068105505915 1.0288367527993074
| 21> H -1.7482158419345968 1.8261067911124802 -0.6501370547659833
| 22> H 0.3563186566715349 2.1431604398231388 0.5955081187967604
| 23> H -0.10612987952349003 0.9510324978355049 1.7845654935610644
| 24> H 0.4388501681883874 0.4123616218604613 -1.1899601685881733
| 25> H 4.077574805621633 0.4862148088462968 1.5043461279512957
| 26> H 3.6808796826433006 -1.8781144691021179 0.7398523418357439
| 27> H 5.405305644055478 -1.470503977003135 0.6032802060141073
| 28> H 4.39141659078327 -1.4861060410085551 -0.836042942993551
| 29> H 4.738654599241712 1.829138756111846 -0.4796919333949245
| 30> H 0.04672650673501221 -1.9556547550813832 -0.6602993538388837
| 31> H -0.29244023086494497 -1.5758979582243595 1.0066429518712288
| 32> H -2.54032735631549 -2.5533304111747146 1.0769808824046083
| 33> H -2.2543688597497455 -3.165862768263225 -0.5575778193459626
| 34> H -3.7165838420862785 -2.2313991041417394 -0.20433559917312316
| 35> H -1.7021251752052016 -1.5901905333430217 -2.447112140022971
| 36> H -3.1641023491096427 -0.6597299949749207 -2.0964729809731946
| 37> H -1.6017073377449047 0.1523344359201975 -2.194411747373967
| 38> H -3.530171675729231 0.3314491449786564 0.1847699936939636
| 39> H -2.529368037941166 -0.15513381608892282 1.5432335539333746
| 40> *
| 41>
| 42>                          ****END OF INPUT****

CARTESIAN COORDINATES (ANGSTROEM)
---------------------------------
  C     -2.282106    2.524325    1.291109
  C     -1.686100    1.451736    0.378986
  C     -0.212213    1.213824    0.723175
  C      0.404514    0.107964   -0.136933
  O      1.738394   -0.178562    0.329216
  C      2.728138    0.622730   -0.148225
  O      2.572112    1.574112   -0.906415
  C      4.089575    0.238687    0.437867
  C      4.403261   -1.233163    0.230239
  O      5.142509    0.996968   -0.162180
  C     -0.403885   -1.188576   -0.016305
  C     -1.901469   -1.015270   -0.346892
  C     -2.645675   -2.315616    0.012432
  C     -2.100027   -0.759311   -1.853259
  C     -2.491012    0.146269    0.486989
  H     -2.247820    2.218720    2.342356
  H     -1.731127    3.465781    1.194297
  H     -3.327254    2.719507    1.028837
  H     -1.748216    1.826107   -0.650137
  H      0.356319    2.143160    0.595508
  H     -0.106130    0.951032    1.784565
  H      0.438850    0.412362   -1.189960
  H      4.077575    0.486215    1.504346
  H      3.680880   -1.878114    0.739852
  H      5.405306   -1.470504    0.603280
  H      4.391417   -1.486106   -0.836043
  H      4.738655    1.829139   -0.479692
  H      0.046727   -1.955655   -0.660299
  H     -0.292440   -1.575898    1.006643
  H     -2.540327   -2.553330    1.076981
  H     -2.254369   -3.165863   -0.557578
  H     -3.716584   -2.231399   -0.204336
  H     -1.702125   -1.590191   -2.447112
  H     -3.164102   -0.659730   -2.096473
  H     -1.601707    0.152334   -2.194412
  H     -3.530172    0.331449    0.184770
  H     -2.529368   -0.155134    1.543234

 Total Charge           Charge          ....    0
 Multiplicity           Mult            ....    1
 Number of Electrons    NEL             ....  118
 Basis Dimension        Dim             ....  320

ORBITAL ENERGIES
----------------

  NO   OCC          E(Eh)            E(eV)
   0   2.0000     -20.608386      -560.7827
   1   2.0000     -20.558172      -559.4163
   2   2.0000     -20.547867      -559.1359
   3   2.0000     -11.398214      -310.1612
   4   2.0000     -11.302056      -307.5446
   5   2.0000     -11.297101      -307.4097
   6   2.0000     -11.243613      -305.9543
   7   2.0000     -11.233496      -305.6790
   8   2.0000     -11.231420      -305.6225
   9   2.0000     -11.230760      -305.6045
  10   2.0000     -11.227880      -305.5261
  11   2.0000     -11.226820      -305.4973
  12   2.0000     -11.225511      -305.4617
  13   2.0000     -11.224670      -305.4388
  14   2.0000     -11.223891      -305.4176
  15   2.0000      -1.448930       -39.4274
  16   2.0000      -1.357860       -36.9492
  17   2.0000      -1.330460       -36.2037
  18   2.0000      -1.136271       -30.9195
  19   2.0000      -1.061715       -28.8907
  20   2.0000      -1.046891       -28.4873
  21   2.0000      -1.009225       -27.4624
  22   2.0000      -0.928553       -25.2672
  23   2.0000      -0.921943       -25.0873
  24   2.0000      -0.920174       -25.0392
  25   2.0000      -0.896594       -24.3976
  26   2.0000      -0.829173       -22.5629
  27   2.0000      -0.786331       -21.3972
  28   2.0000      -0.772255       -21.0141
  29   2.0000      -0.742360       -20.2006
  30   2.0000      -0.718100       -19.5405
  31   2.0000      -0.692133       -18.8339
  32   2.0000      -0.679038       -18.4776
  33   2.0000      -0.656123       -17.8540
  34   2.0000      -0.645036       -17.5523
  35   2.0000      -0.629944       -17.1416
  36   2.0000      -0.617734       -16.8094
  37   2.0000      -0.599917       -16.3246
  38   2.0000      -0.591122       -16.0852
  39   2.0000      -0.582137       -15.8407
  40   2.0000      -0.571610       -15.5543
  41   2.0000      -0.555021       -15.1029
  42   2.0000      -0.552269       -15.0280
  43   2.0000      -0.549688       -14.9578
  44   2.0000      -0.537642       -14.6300
  45   2.0000      -0.531026       -14.4500
  46   2.0000      -0.526002       -14.3132
  47   2.0000      -0.521812       -14.1992
  48   2.0000      -0.520394       -14.1606
  49   2.0000      -0.510374       -13.8880
  50   2.0000      -0.499045       -13.5797
  51   2.0000      -0.487763       -13.2727
  52   2.0000      -0.477999       -13.0070
  53   2.0000      -0.470961       -12.8155
  54   2.0000      -0.460157       -12.5215
  55   2.0000      -0.456375       -12.4186
  56   2.0000      -0.448857       -12.2140
  57   2.0000      -0.437494       -11.9048
  58   2.0000      -0.426890       -11.6163
  59   0.0000       0.151206         4.1145
  60   0.0000       0.162954         4.4342
  61   0.0000       0.185903         5.0587
  62   0.0000       0.187621         5.1054
  63   0.0000       0.199157         5.4194

MULLIKEN ATOMIC CHARGES
-----------------------
   0 C :    0.045823
   1 C :   -0.239787
   2 C :    0.006310
   3 C :    0.236355
   4 O :   -0.561357
   5 C :    0.493360
   6 O :   -0.435595
   7 C :    0.185782
   8 C :   -0.029577
   9 O :   -0.456695
  10 C :    0.087662
  11 C :   -0.526270
  12 C :    0.082809
  13 C :    0.064754
  14 C :    0.095616
  15 H :    0.023432
  16 H :    0.031795
  17 H :    0.029789
  18 H :    0.038161
  19 H :    0.049068
  20 H :    0.025122
  21 H :    0.055406
  22 H :    0.052868
  23 H :    0.050910
  24 H :    0.057340
  25 H :    0.038020
  26 H :    0.214183
  27 H :    0.033296
  28 H :    0.031326
  29 H :    0.026315
  30 H :    0.027518
  31 H :    0.028582
  32 H :    0.029867
  33 H :    0.029897
  34 H :    0.031827
  35 H :    0.026576
  36 H :    0.019510
Sum of atomic charges:   -0.0000000

LOEWDIN ATOMIC CHARGES
----------------------
   0 C :   -0.022723
   1 C :   -0.031869
   2 C :   -0.018376
   3 C :    0.121615
   4 O :   -0.181793
   5 C :    0.221390
   6 O :   -0.279330
   7 C :    0.084572
   8 C :   -0.031119
   9 O :   -0.194972
  10 C :   -0.008163
  11 C :   -0.060818
  12 C :   -0.016252
  13 C :   -0.021337
  14 C :   -0.003244
  15 H :    0.013738
  16 H :    0.016489
  17 H :    0.015859
  18 H :    0.013449
  19 H :    0.020620
  20 H :    0.014195
  21 H :    0.015651
  22 H :    0.022686
  23 H :    0.024398
  24 H :    0.029117
  25 H :    0.023953
  26 H :    0.088475
  27 H :    0.016600
  28 H :    0.016501
  29 H :    0.013247
  30 H :    0.014427
  31 H :    0.015234
  32 H :    0.016081
  33 H :    0.016608
  34 H :    0.010814
  35 H :    0.013463
  36 H :    0.010814

  Mayer bond orders larger than 0.100000
B(  0-C ,  1-C ) :   1.0428 B(  0-C , 15-H ) :   0.9803 B(  0-C , 16-H ) :   0.9862
B(  0-C , 17-H ) :   0.9857 B(  1-C ,  2-C ) :   0.9987 B(  1-C , 14-C ) :   0.9887
B(  1-C , 18-H ) :   0.9589 B(  2-C ,  3-C ) :   1.0389 B(  2-C , 19-H ) :   0.9679
B(  2-C , 20-H ) :   0.9586 B(  3-C ,  4-O ) :   0.7642 B(  3-C , 10-C ) :   1.0223
B(  3-C , 21-H ) :   0.9684 B(  4-O ,  5-C ) :   1.0661 B(  5-C ,  6-O ) :   1.9260
B(  5-C ,  7-C ) :   0.9432 B(  7-C ,  8-C ) :   1.0291 B(  7-C ,  9-O ) :   0.9749
B(  7-C , 22-H ) :   0.9563 B(  8-C , 23-H ) :   0.9757 B(  8-C , 24-H ) :   0.9845
B(  8-C , 25-H ) :   0.9778 B(  9-O , 26-H ) :   0.9499 B( 10-C , 11-C ) :   0.9693
B( 10-C , 27-H ) :   0.9708 B( 10-C , 28-H ) :   0.9669 B( 11-C , 12-C ) :   1.0219
B( 11-C , 13-C ) :   0.9741 B( 11-C , 14-C ) :   0.9679 B( 12-C , 29-H ) :   0.9824
B( 12-C , 30-H ) :   0.9847 B( 12-C , 31-H ) :   0.9850 B( 13-C , 32-H ) :   0.9856
B( 13-C , 33-H ) :   0.9850 B( 13-C , 34-H ) :   0.9872 B( 14-C , 35-H ) :   0.9712
B( 14-C , 36-H ) :   0.9717

FINAL SINGLE POINT ENERGY      -691.332301253984

DIPOLE MOMENT
-------------
                                X             Y             Z
Electronic contribution:     17.11085       4.79666      -1.36674
Nuclear contribution   :    -18.21201      -5.25812       1.82740
                        -----------------------------------------
Total Dipole Moment    :     -1.10115      -0.46146       0.46066
                        -----------------------------------------
Magnitude (a.u.)       :      1.27972
Magnitude (Debye)      :      3.25279

Rotational constants in cm-1:     0.034139     0.009931     0.008582
Rotational constants in MHz :  1023.455070   297.723031   257.281585

                             ****ORCA TERMINATED NORMALLY****
TOTAL RUN TIME: 0 days 0 hours 0 minutes 15 seconds 24 msec
