                         Program Version 5.0.3 -  RELEASE  -
|  1> !RHF def2-SVP TightSCF PAL16
|  2> *xyz 0 1
|  3> C -3.5893162093868267 -1.383148877014968 1.2412957966502667
|  4> C -3.0813008583936607 -0.19616319699350102 0.42025416327603776
|  5> C -3.5900253724354014 -0.282139012277491 -1.0114181019839972
|  6> O -2.932739218601727 -0.3753300274379128 -2.03506029019511
|  7> O -4.937163665826837 -0.22174658896268204 -1.085089473251327
|  8> C -1.563956402838618 -0.07275701525846792 0.5034996259717566
|  9> C -0.9858972008581876 1.1002361449763038 1.0135899337590577
| 10> C 0.4017920135566091 1.2319636014065465 1.0931769093404653
| 11> C 1.2305655851179607 0.19304801735610647 0.6515303366539189
| 12> C 2.6896236294674596 0.39542523761437626 0.7537433754354542
| 13> O 3.146634433444522 0.4570980867440291 1.8947339229176088
| 14> C 3.456517864176554 0.5663236505062268 -0.4734180956860741
| 15> C 3.0249982621843574 0.7119445250692876 -1.7811422712447023
| 16> C 4.104610233987025 0.8562940931697326 -2.701996363173412
| 17> C 5.326499125183129 0.8246266913969872 -2.071043452456086
| 18> S 5.169794549729356 0.6254133191917282 -0.38180277178845434
| 19> C 0.6738395635220612 -0.9900262692484219 0.16250638892483477
| 20> Cl 1.6353686430089722 -2.3345248099686273 -0.33478637724422916
| 21> C -0.7175116972825759 -1.1156190654497111 0.08372918161298254
| 22> H -3.209336239270586 -1.3451312330855105 2.268188358635237
| 23> H -3.2869398248461192 -2.340748268510436 0.8028435400030604
| 24> H -4.683789339030923 -1.3846234507775101 1.2905620570639587
| 25> H -3.5174440438564143 0.7202518593316587 0.8406037538039515
| 26> H -5.12568965460283 -0.2749664443129494 -2.04626441197656
| 27> H -1.6108793542821425 1.9226949533456519 1.3584817311188646
| 28> H 0.8363955343472084 2.1428536315793476 1.501112158808537
| 29> H 1.9835203787134073 0.7148589803012254 -2.0808004017507566
| 30> H 3.989184555702703 0.9773438852695691 -3.772322136985967
| 31> H 6.30721208548439 0.9104275319821673 -2.5187405120246917
| 32> H -1.1445673761122421 -2.033879949942258 -0.3166041429437308
| 33> *
| 34>
| 35>                          ****END OF INPUT****

CARTESIAN COORDINATES (ANGSTROEM)
---------------------------------
  C     -3.589316   -1.383149    1.241296
  C     -3.081301   -0.196163    0.420254
  C     -3.590025   -0.282139   -1.011418
  O     -2.932739   -0.375330   -2.035060
  O     -4.937164   -0.221747   -1.085089
  C     -1.563956   -0.072757    0.503500
  C     -0.985897    1.100236    1.013590
  C      0.401792    1.231964    1.093177
  C      1.230566    0.193048    0.651530
  C      2.689624    0.395425    0.753743
  O      3.146634    0.457098    1.894734
  C      3.456518    0.566324   -0.473418
  C      3.024998    0.711945   -1.781142
  C      4.104610    0.856294   -2.701996
  C      5.326499    0.824627   -2.071043
  S      5.169795    0.625413   -0.381803
  C      0.673840   -0.990026    0.162506
  Cl     1.635369   -2.334525   -0.334786
  C     -0.717512   -1.115619    0.083729
  H     -3.209336   -1.345131    2.268188
  H     -3.286940   -2.340748    0.802844
  H     -4.683789   -1.384623    1.290562
  H     -3.517444    0.720252    0.840604
  H     -5.125690   -0.274966   -2.046264
  H     -1.610879    1.922695    1.358482
  H      0.836396    2.142854    1.501112
  H      1.983520    0.714859   -2.080800
  H      3.989185    0.977344   -3.772322
  H      6.307212    0.910428   -2.518741
  H     -1.144567   -2.033880   -0.316604

 Total Charge           Charge          ....    0
 Multiplicity           Mult            ....    1
 Number of Electrons    NEL             ....  152
 Basis Dimension        Dim             ....  329

ORBITAL ENERGIES
----------------

  NO   OCC          E(Eh)            E(eV)
   0   2.0000    -104.804327     -2851.8707
   1   2.0000     -91.958466     -2502.3171
   2   2.0000     -20.618165      -561.0488
   3   2.0000     -20.555795      -559.3516
   4   2.0000     -20.545694      -559.0768
   5   2.0000     -11.403176      -310.2962
   6   2.0000     -11.348974      -308.8213
   7   2.0000     -11.314749      -307.8900
   8   2.0000     -11.283833      -307.0487
   9   2.0000     -11.279545      -306.9320
  10   2.0000     -11.272585      -306.7426
  11   2.0000     -11.271115      -306.7026
  12   2.0000     -11.269259      -306.6521
  13   2.0000     -11.264707      -306.5283
  14   2.0000     -11.263523      -306.4961
  15   2.0000     -11.262324      -306.4634
  16   2.0000     -11.259167      -306.3775
  17   2.0000     -11.254101      -306.2397
  18   2.0000     -11.251491      -306.1686
  19   2.0000     -10.567890      -287.5669
  20   2.0000      -8.994887      -244.7633
  21   2.0000      -8.042990      -218.8609
  22   2.0000      -8.039369      -218.7624
  23   2.0000      -8.039280      -218.7599
  24   2.0000      -6.682240      -181.8330
  25   2.0000      -6.681188      -181.8044
  26   2.0000      -6.679520      -181.7590
  27   2.0000      -1.460280       -39.7362
  28   2.0000      -1.370559       -37.2948
  29   2.0000      -1.345371       -36.6094
  30   2.0000      -1.198277       -32.6068
  31   2.0000      -1.183865       -32.2146
  32   2.0000      -1.136479       -30.9252
  33   2.0000      -1.094317       -29.7779
  34   2.0000      -1.036961       -28.2171
  35   2.0000      -1.006964       -27.4009
  36   2.0000      -0.998438       -27.1689
  37   2.0000      -0.993108       -27.0238
  38   2.0000      -0.917806       -24.9748
  39   2.0000      -0.886979       -24.1359
  40   2.0000      -0.841602       -22.9011
  41   2.0000      -0.830767       -22.6063
  42   2.0000      -0.787574       -21.4310
  43   2.0000      -0.769512       -20.9395
  44   2.0000      -0.743380       -20.2284
  45   2.0000      -0.720529       -19.6066
  46   2.0000      -0.712246       -19.3812
  47   2.0000      -0.708376       -19.2759
  48   2.0000      -0.679994       -18.5036
  49   2.0000      -0.655593       -17.8396
  50   2.0000      -0.648858       -17.6563
  51   2.0000      -0.640766       -17.4361
  52   2.0000      -0.622809       -16.9475
  53   2.0000      -0.615925       -16.7602
  54   2.0000      -0.608457       -16.5569
  55   2.0000      -0.600786       -16.3482
  56   2.0000      -0.587016       -15.9735
  57   2.0000      -0.576046       -15.6750
  58   2.0000      -0.564142       -15.3511
  59   2.0000      -0.563568       -15.3355
  60   2.0000      -0.549580       -14.9548
  61   2.0000      -0.542116       -14.7517
  62   2.0000      -0.534689       -14.5496
  63   2.0000      -0.520767       -14.1708
  64   2.0000      -0.516606       -14.0576
  65   2.0000      -0.499664       -13.5965
  66   2.0000      -0.488728       -13.2990
  67   2.0000      -0.486948       -13.2505
  68   2.0000      -0.473489       -12.8843
  69   2.0000      -0.461776       -12.5656
  70   2.0000      -0.460006       -12.5174
  71   2.0000      -0.432893       -11.7796
  72   2.0000      -0.356731        -9.7071
  73   2.0000      -0.351235        -9.5576
  74   2.0000      -0.344463        -9.3733
  75   2.0000      -0.341256        -9.2861
  76   0.0000       0.061574         1.6755
  77   0.0000       0.103824         2.8252
  78   0.0000       0.110958         3.0193
  79   0.0000       0.149849         4.0776
  80   0.0000       0.175225         4.7681

MULLIKEN ATOMIC CHARGES
-----------------------
   0 C :    0.004492
   1 C :   -0.168993
   2 C :    0.504044
   3 O :   -0.400255
   4 O :   -0.357313
   5 C :   -0.084957
   6 C :   -0.021140
   7 C :    0.026441
   8 C :   -0.187128
   9 C :    0.440989
  10 O :   -0.376593
  11 C :   -0.335596
  12 C :    0.061056
  13 C :   -0.065072
  14 C :   -0.066171
  15 S :    0.170290
  16 C :    0.073926
  17 Cl:   -0.109480
  18 C :    0.049028
  19 H :    0.061335
  20 H :    0.043886
  21 H :    0.062436
  22 H :    0.079426
  23 H :    0.228781
  24 H :    0.040576
  25 H :    0.058257
  26 H :    0.075382
  27 H :    0.057654
  28 H :    0.089451
  29 H :    0.045249
Sum of atomic charges:    0.0000000

LOEWDIN ATOMIC CHARGES
----------------------
   0 C :   -0.012865
   1 C :   -0.042652
   2 C :    0.217255
   3 O :   -0.275031
   4 O :   -0.110741
   5 C :   -0.010763
   6 C :   -0.022388
   7 C :    0.011090
   8 C :   -0.072964
   9 C :    0.143618
  10 O :   -0.240381
  11 C :   -0.254195
  12 C :   -0.001894
  13 C :   -0.077724
  14 C :   -0.148739
  15 S :    0.464588
  16 C :   -0.100616
  17 Cl:    0.112245
  18 C :   -0.016968
  19 H :    0.029679
  20 H :    0.021751
  21 H :    0.026860
  22 H :    0.042724
  23 H :    0.117057
  24 H :    0.028631
  25 H :    0.039745
  26 H :    0.038854
  27 H :    0.032049
  28 H :    0.029898
  29 H :    0.031876

  Mayer bond orders larger than 0.100000
B(  0-C ,  1-C ) :   1.0227 B(  0-C , 19-H ) :   0.9857 B(  0-C , 20-H ) :   0.9800
B(  0-C , 21-H ) :   0.9822 B(  1-C ,  2-C ) :   0.9286 B(  1-C ,  5-C ) :   0.9742
B(  1-C , 22-H ) :   0.9572 B(  2-C ,  3-O ) :   2.0104 B(  2-C ,  4-O ) :   1.1311
B(  4-O , 23-H ) :   0.9399 B(  5-C ,  6-C ) :   1.4262 B(  5-C , 18-C ) :   1.3960
B(  6-C ,  7-C ) :   1.4321 B(  6-C , 24-H ) :   0.9991 B(  7-C ,  8-C ) :   1.4349
B(  7-C , 25-H ) :   0.9998 B(  8-C ,  9-C ) :   0.9366 B(  8-C , 16-C ) :   1.4523
B(  9-C , 10-O ) :   2.0694 B(  9-C , 11-C ) :   0.9997 B( 11-C , 12-C ) :   1.5744
B( 11-C , 15-S ) :   1.1430 B( 12-C , 13-C ) :   1.2756 B( 12-C , 26-H ) :   0.9890
B( 13-C , 14-C ) :   1.5897 B( 13-C , 27-H ) :   0.9998 B( 14-C , 15-S ) :   1.2007
B( 14-C , 28-H ) :   0.9787 B( 16-C , 17-Cl) :   1.0002 B( 16-C , 18-C ) :   1.4314
B( 18-C , 29-H ) :   0.9978

FINAL SINGLE POINT ENERGY     -1617.327520093883

DIPOLE MOMENT
-------------
                                X             Y             Z
Electronic contribution:     16.91917      -3.98900      -1.01144
Nuclear contribution   :    -18.22586       4.42901       0.12592
                        -----------------------------------------
Total Dipole Moment    :     -1.30670       0.44001      -0.88552
                        -----------------------------------------
Magnitude (a.u.)       :      1.63866
Magnitude (Debye)      :      4.16515

Rotational constants in cm-1:     0.023217     0.005044     0.004874
Rotational constants in MHz :   696.035009   151.211770   146.106383

                             ****ORCA TERMINATED NORMALLY****
TOTAL RUN TIME: 0 days 0 hours 0 minutes 15 seconds 864 msec
