                         Program Version 5.0.3 -  RELEASE  -
|  1> !RHF def2-SVP TightSCF PAL16
|  2> *xyz 0 1
|  3> O -3.282961833267619 -0.9160936741794324 -0.21412995181158628
|  4> C -2.3182085409058946 -0.2511447094647224 -0.570257837902978
|  5> O -2.002229960451715 -0.15753271455419235 -1.8770438776170053
|  6> C -1.440467084766369 0.5887452614593572 0.36502756219423416
|  7> O -1.8226479231565955 0.3987149083884794 1.7318401304289248
|  8> C 0.03470787965732089 0.2820046433551309 0.21547572854043098
|  9> C 0.6191380105105203 -0.8134765724256156 0.8711534843440947
| 10> C 1.9746612405982555 -1.103049525167528 0.705231787347859
| 11> C 2.7622537131460265 -0.30563438258988335 -0.12208477197820292
| 12> C 2.1958286693685247 0.7814914532634943 -0.7842432958390096
| 13> C 0.8403529644486362 1.0732998456518255 -0.6186877531616464
| 14> H -2.6378747483790943 -0.7521374444685345 -2.3272669091660987
| 15> H -1.6382364291713596 1.6427623053553888 0.13887571072209526
| 16> H -2.7609001148877663 0.13035272719659194 1.7178224180794366
| 17> H 0.018590046493357507 -1.442167027491716 1.5261593869612458
| 18> H 2.4152258914977947 -1.9496898602607406 1.225137783739873
| 19> H 3.8176518972294886 -0.530960355064066 -0.2496969681980343
| 20> H 2.809721260005406 1.4025907439494816 -1.4312954590234535
| 21> H 0.4153950620313174 1.9219243770461136 -1.1504810027133225
| 22> *
| 23>
| 24>                          ****END OF INPUT****

CARTESIAN COORDINATES (ANGSTROEM)
---------------------------------
  O     -3.282962   -0.916094   -0.214130
  C     -2.318209   -0.251145   -0.570258
  O     -2.002230   -0.157533   -1.877044
  C     -1.440467    0.588745    0.365028
  O     -1.822648    0.398715    1.731840
  C      0.034708    0.282005    0.215476
  C      0.619138   -0.813477    0.871153
  C      1.974661   -1.103050    0.705232
  C      2.762254   -0.305634   -0.122085
  C      2.195829    0.781491   -0.784243
  C      0.840353    1.073300   -0.618688
  H     -2.637875   -0.752137   -2.327267
  H     -1.638236    1.642762    0.138876
  H     -2.760900    0.130353    1.717822
  H      0.018590   -1.442167    1.526159
  H      2.415226   -1.949690    1.225138
  H      3.817652   -0.530960   -0.249697
  H      2.809721    1.402591   -1.431295
  H      0.415395    1.921924   -1.150481

 Total Charge           Charge          ....    0
 Multiplicity           Mult            ....    1
 Number of Electrons    NEL             ....   80
 Basis Dimension        Dim             ....  194

ORBITAL ENERGIES
----------------

  NO   OCC          E(Eh)            E(eV)
   0   2.0000     -20.624091      -561.2100
   1   2.0000     -20.564963      -559.6011
   2   2.0000     -20.563156      -559.5519
   3   2.0000     -11.409360      -310.4645
   4   2.0000     -11.322285      -308.0950
   5   2.0000     -11.255868      -306.2877
   6   2.0000     -11.248281      -306.0813
   7   2.0000     -11.245403      -306.0030
   8   2.0000     -11.244659      -305.9827
   9   2.0000     -11.243620      -305.9545
  10   2.0000     -11.242751      -305.9308
  11   2.0000      -1.465748       -39.8850
  12   2.0000      -1.363190       -37.0943
  13   2.0000      -1.341299       -36.4986
  14   2.0000      -1.150543       -31.3079
  15   2.0000      -1.049596       -28.5610
  16   2.0000      -1.009462       -27.4688
  17   2.0000      -0.963665       -26.2227
  18   2.0000      -0.845213       -22.9994
  19   2.0000      -0.828449       -22.5432
  20   2.0000      -0.795787       -21.6545
  21   2.0000      -0.738613       -20.0987
  22   2.0000      -0.717227       -19.5167
  23   2.0000      -0.707002       -19.2385
  24   2.0000      -0.684050       -18.6139
  25   2.0000      -0.650718       -17.7069
  26   2.0000      -0.630848       -17.1662
  27   2.0000      -0.625678       -17.0256
  28   2.0000      -0.602913       -16.4061
  29   2.0000      -0.594943       -16.1892
  30   2.0000      -0.589277       -16.0350
  31   2.0000      -0.546131       -14.8610
  32   2.0000      -0.513717       -13.9789
  33   2.0000      -0.511259       -13.9121
  34   2.0000      -0.501216       -13.6388
  35   2.0000      -0.495166       -13.4742
  36   2.0000      -0.477924       -13.0050
  37   2.0000      -0.463873       -12.6226
  38   2.0000      -0.342845        -9.3293
  39   2.0000      -0.340302        -9.2601
  40   0.0000       0.115565         3.1447
  41   0.0000       0.123002         3.3471
  42   0.0000       0.160073         4.3558
  43   0.0000       0.179451         4.8831
  44   0.0000       0.188967         5.1421

MULLIKEN ATOMIC CHARGES
-----------------------
   0 O :   -0.421493
   1 C :    0.459104
   2 O :   -0.344679
   3 C :    0.301936
   4 O :   -0.435602
   5 C :   -0.198633
   6 C :    0.011893
   7 C :   -0.039089
   8 C :   -0.029652
   9 C :   -0.041226
  10 C :    0.001940
  11 H :    0.234243
  12 H :    0.064307
  13 H :    0.215076
  14 H :    0.053851
  15 H :    0.044905
  16 H :    0.043917
  17 H :    0.043003
  18 H :    0.036199
Sum of atomic charges:    0.0000000

LOEWDIN ATOMIC CHARGES
----------------------
   0 O :   -0.283481
   1 C :    0.208273
   2 O :   -0.099515
   3 C :    0.101127
   4 O :   -0.180014
   5 C :   -0.049052
   6 C :   -0.002327
   7 C :   -0.023528
   8 C :   -0.018971
   9 C :   -0.025083
  10 C :   -0.012468
  11 H :    0.120690
  12 H :    0.031252
  13 H :    0.089719
  14 H :    0.032763
  15 H :    0.028814
  16 H :    0.027624
  17 H :    0.028046
  18 H :    0.026132

  Mayer bond orders larger than 0.100000
B(  0-O ,  1-C ) :   1.9759 B(  1-C ,  2-O ) :   1.1421 B(  1-C ,  3-C ) :   0.9361
B(  2-O , 11-H ) :   0.9373 B(  3-C ,  4-O ) :   1.0043 B(  3-C ,  5-C ) :   0.9866
B(  3-C , 12-H ) :   0.9595 B(  4-O , 13-H ) :   0.9471 B(  5-C ,  6-C ) :   1.4060
B(  5-C , 10-C ) :   1.4190 B(  6-C ,  7-C ) :   1.4277 B(  6-C , 14-H ) :   0.9989
B(  7-C ,  8-C ) :   1.4081 B(  7-C , 15-H ) :   1.0014 B(  8-C ,  9-C ) :   1.4177
B(  8-C , 16-H ) :   0.9993 B(  9-C , 10-C ) :   1.4295 B(  9-C , 17-H ) :   0.9992
B( 10-C , 18-H ) :   0.9984

FINAL SINGLE POINT ENERGY      -531.801437270375

DIPOLE MOMENT
-------------
                                X             Y             Z
Electronic contribution:     -4.67938      -0.57204      -0.57767
Nuclear contribution   :      4.92215       0.75089      -0.24592
                        -----------------------------------------
Total Dipole Moment    :      0.24277       0.17885      -0.82358
                        -----------------------------------------
Magnitude (a.u.)       :      0.87705
Magnitude (Debye)      :      2.22928

Rotational constants in cm-1:     0.071950     0.024292     0.021803
Rotational constants in MHz :  2157.001613   728.242104   653.641721

                             ****ORCA TERMINATED NORMALLY****
TOTAL RUN TIME: 0 days 0 hours 0 minutes 4 seconds 507 msec
