                         Program Version 5.0.3 -  RELEASE  -
|  1> !RHF def2-SVP TightSCF PAL16
|  2> *xyz 0 1
|  3> O -4.593710178426715 1.2698630938900488 -2.6867772432007526
|  4> C -3.7283741201419356 1.8459065948495692 -2.046480592544687
|  5> O -2.899887160080079 2.706467674220023 -2.6753016794883258
|  6> C -3.49145429832214 1.7720633303944524 -0.5565362359862399
|  7> C -4.506861216745694 0.8395004095150679 0.13998061763149275
|  8> C -3.828166248818948 0.32528102663304237 1.4145209038558162
|  9> C -2.391729475589408 0.32821799478530256 0.9968802251854343
| 10> C -1.3317990558721944 -0.3120704475235243 1.6201052765048152
| 11> C -0.040249116280026156 -0.14570215545895887 1.1099505755920167
| 12> O 0.924888964742964 -0.825440762914444 1.8014322340276954
| 13> C 2.2829418864518582 -0.7241955346393284 1.3700749659899314
| 14> C 2.584845968202059 -1.765531385969278 0.29828283302248493
| 15> N 3.9493178942491034 -1.6813177528959327 -0.17260940020441037
| 16> C 4.381720883964744 -1.0145564790403545 -1.282963317887395
| 17> C 5.740580986751195 -1.2253274854624245 -1.3112118245479958
| 18> N 6.135864235200455 -1.9998810046023994 -0.2506684524405995
| 19> C 5.03503620095789 -2.2685190346089303 0.4113963057008344
| 20> C 0.16167385600982842 0.6707472144911107 -0.013072135104980854
| 21> C -0.9140037516565708 1.326471252507782 -0.627829925438092
| 22> C -2.1912788855238525 1.1412084291515123 -0.12382224654774833
| 23> H -3.195510427536358 2.6719068755837068 -3.609677158476714
| 24> H -3.573642498714102 2.780630886344198 -0.1328410957446615
| 25> H -4.751143543393509 -0.018963995249369495 -0.5010848576589533
| 26> H -5.451792455672182 1.3493930581910476 0.3563057999114128
| 27> H -3.9791815818725595 1.0167018771703236 2.2502608643341566
| 28> H -4.185823722612148 -0.6729884833235132 1.6838438836557232
| 29> H -1.4974155270634346 -0.9296063770704102 2.4979361614822446
| 30> H 2.9010109608309014 -0.9341588285380548 2.251921887412626
| 31> H 2.5525737481468913 0.2959027366334614 1.0712398681955824
| 32> H 1.9206384896825026 -1.6568849544436945 -0.5662858967801324
| 33> H 2.420510816420675 -2.777985948237069 0.686529361419603
| 34> H 3.719005129731163 -0.46770780578825477 -1.9391594099659872
| 35> H 6.454854444592643 -0.8607430898926045 -2.0362739307516757
| 36> H 4.9726136497582605 -2.869201223335461 1.3092535461532442
| 37> H 1.146891740532215 0.8335819517228266 -0.43562128385698284
| 38> H -0.7329465919090217 1.9769383428249714 -1.4788845984484869
| 39> *
| 40>
| 41>                          ****END OF INPUT****

CARTESIAN COORDINATES (ANGSTROEM)
---------------------------------
  O     -4.593710    1.269863   -2.686777
  C     -3.728374    1.845907   -2.046481
  O     -2.899887    2.706468   -2.675302
  C     -3.491454    1.772063   -0.556536
  C     -4.506861    0.839500    0.139981
  C     -3.828166    0.325281    1.414521
  C     -2.391729    0.328218    0.996880
  C     -1.331799   -0.312070    1.620105
  C     -0.040249   -0.145702    1.109951
  O      0.924889   -0.825441    1.801432
  C      2.282942   -0.724196    1.370075
  C      2.584846   -1.765531    0.298283
  N      3.949318   -1.681318   -0.172609
  C      4.381721   -1.014556   -1.282963
  C      5.740581   -1.225327   -1.311212
  N      6.135864   -1.999881   -0.250668
  C      5.035036   -2.268519    0.411396
  C      0.161674    0.670747   -0.013072
  C     -0.914004    1.326471   -0.627830
  C     -2.191279    1.141208   -0.123822
  H     -3.195510    2.671907   -3.609677
  H     -3.573642    2.780631   -0.132841
  H     -4.751144   -0.018964   -0.501085
  H     -5.451792    1.349393    0.356306
  H     -3.979182    1.016702    2.250261
  H     -4.185824   -0.672988    1.683844
  H     -1.497416   -0.929606    2.497936
  H      2.901011   -0.934159    2.251922
  H      2.552574    0.295903    1.071240
  H      1.920638   -1.656885   -0.566286
  H      2.420511   -2.777986    0.686529
  H      3.719005   -0.467708   -1.939159
  H      6.454854   -0.860743   -2.036274
  H      4.972614   -2.869201    1.309254
  H      1.146892    0.833582   -0.435621
  H     -0.732947    1.976938   -1.478885

 Total Charge           Charge          ....    0
 Multiplicity           Mult            ....    1
 Number of Electrons    NEL             ....  144
 Basis Dimension        Dim             ....  360

ORBITAL ENERGIES
----------------

  NO   OCC          E(Eh)            E(eV)
   0   2.0000     -20.615068      -560.9645
   1   2.0000     -20.594262      -560.3984
   2   2.0000     -20.550989      -559.2208
   3   2.0000     -15.626859      -425.2284
   4   2.0000     -15.541207      -422.8977
   5   2.0000     -11.398035      -310.1563
   6   2.0000     -11.318930      -308.0038
   7   2.0000     -11.312467      -307.8279
   8   2.0000     -11.297910      -307.4318
   9   2.0000     -11.297425      -307.4186
  10   2.0000     -11.265919      -306.5613
  11   2.0000     -11.265154      -306.5404
  12   2.0000     -11.256080      -306.2935
  13   2.0000     -11.251243      -306.1619
  14   2.0000     -11.248236      -306.0801
  15   2.0000     -11.245606      -306.0085
  16   2.0000     -11.245191      -305.9972
  17   2.0000     -11.241247      -305.8899
  18   2.0000     -11.239619      -305.8456
  19   2.0000     -11.237891      -305.7986
  20   2.0000      -1.456855       -39.6430
  21   2.0000      -1.407922       -38.3115
  22   2.0000      -1.344433       -36.5839
  23   2.0000      -1.340783       -36.4846
  24   2.0000      -1.184705       -32.2375
  25   2.0000      -1.181027       -32.1374
  26   2.0000      -1.105282       -30.0763
  27   2.0000      -1.049525       -28.5590
  28   2.0000      -1.034162       -28.1410
  29   2.0000      -0.999519       -27.1983
  30   2.0000      -0.975411       -26.5423
  31   2.0000      -0.972637       -26.4668
  32   2.0000      -0.897923       -24.4337
  33   2.0000      -0.860971       -23.4282
  34   2.0000      -0.846774       -23.0419
  35   2.0000      -0.810176       -22.0460
  36   2.0000      -0.788786       -21.4639
  37   2.0000      -0.783112       -21.3096
  38   2.0000      -0.779052       -21.1991
  39   2.0000      -0.736460       -20.0401
  40   2.0000      -0.721234       -19.6258
  41   2.0000      -0.713177       -19.4065
  42   2.0000      -0.704391       -19.1675
  43   2.0000      -0.692767       -18.8511
  44   2.0000      -0.680070       -18.5056
  45   2.0000      -0.656707       -17.8699
  46   2.0000      -0.640131       -17.4188
  47   2.0000      -0.634091       -17.2545
  48   2.0000      -0.627113       -17.0646
  49   2.0000      -0.620187       -16.8761
  50   2.0000      -0.607140       -16.5211
  51   2.0000      -0.604209       -16.4414
  52   2.0000      -0.596516       -16.2320
  53   2.0000      -0.586404       -15.9569
  54   2.0000      -0.583787       -15.8856
  55   2.0000      -0.570915       -15.5354
  56   2.0000      -0.560815       -15.2606
  57   2.0000      -0.540972       -14.7206
  58   2.0000      -0.537744       -14.6328
  59   2.0000      -0.520001       -14.1500
  60   2.0000      -0.513491       -13.9728
  61   2.0000      -0.505510       -13.7556
  62   2.0000      -0.501751       -13.6533
  63   2.0000      -0.488498       -13.2927
  64   2.0000      -0.480352       -13.0711
  65   2.0000      -0.470694       -12.8082
  66   2.0000      -0.458087       -12.4652
  67   2.0000      -0.432984       -11.7821
  68   2.0000      -0.390824       -10.6349
  69   2.0000      -0.347256        -9.4493
  70   2.0000      -0.323361        -8.7991
  71   2.0000      -0.320488        -8.7209
  72   0.0000       0.108992         2.9658
  73   0.0000       0.130760         3.5582
  74   0.0000       0.158059         4.3010
  75   0.0000       0.160876         4.3777
  76   0.0000       0.166412         4.5283

MULLIKEN ATOMIC CHARGES
-----------------------
   0 O :   -0.409911
   1 C :    0.522988
   2 O :   -0.359660
   3 C :   -0.131492
   4 C :    0.010426
   5 C :    0.102219
   6 C :   -0.139463
   7 C :   -0.077215
   8 C :    0.347063
   9 O :   -0.562426
  10 C :    0.278907
  11 C :    0.157228
  12 N :   -0.495898
  13 C :    0.066022
  14 C :    0.051269
  15 N :   -0.361700
  16 C :    0.261027
  17 C :   -0.156341
  18 C :    0.022594
  19 C :   -0.152854
  20 H :    0.226108
  21 H :    0.088161
  22 H :    0.072243
  23 H :    0.039301
  24 H :    0.054486
  25 H :    0.051010
  26 H :    0.035122
  27 H :    0.045921
  28 H :    0.048847
  29 H :    0.059135
  30 H :    0.063001
  31 H :    0.056659
  32 H :    0.046020
  33 H :    0.059084
  34 H :    0.031437
  35 H :    0.050683
Sum of atomic charges:   -0.0000000

LOEWDIN ATOMIC CHARGES
----------------------
   0 O :   -0.276474
   1 C :    0.221874
   2 O :   -0.110785
   3 C :   -0.040125
   4 C :    0.005000
   5 C :   -0.002537
   6 C :   -0.004994
   7 C :   -0.052242
   8 C :    0.105530
   9 O :   -0.192202
  10 C :    0.129068
  11 C :    0.070056
  12 N :   -0.022923
  13 C :   -0.031288
  14 C :   -0.026713
  15 N :   -0.178486
  16 C :    0.063794
  17 C :   -0.094974
  18 C :    0.006392
  19 C :   -0.063242
  20 H :    0.115337
  21 H :    0.042715
  22 H :    0.030005
  23 H :    0.016613
  24 H :    0.026409
  25 H :    0.026141
  26 H :    0.033048
  27 H :    0.021427
  28 H :    0.013359
  29 H :    0.026019
  30 H :    0.029597
  31 H :    0.023268
  32 H :    0.017692
  33 H :    0.019232
  34 H :    0.022232
  35 H :    0.032179

  Mayer bond orders larger than 0.100000
B(  0-O ,  1-C ) :   2.0072 B(  1-C ,  2-O ) :   1.1176 B(  1-C ,  3-C ) :   0.9285
B(  2-O , 20-H ) :   0.9405 B(  3-C ,  4-C ) :   1.0111 B(  3-C , 19-C ) :   0.9450
B(  3-C , 21-H ) :   0.9146 B(  4-C ,  5-C ) :   1.0463 B(  4-C , 22-H ) :   0.9713
B(  4-C , 23-H ) :   0.9755 B(  5-C ,  6-C ) :   0.9772 B(  5-C , 24-H ) :   0.9519
B(  5-C , 25-H ) :   0.9730 B(  6-C ,  7-C ) :   1.4566 B(  6-C , 19-C ) :   1.4235
B(  7-C ,  8-C ) :   1.3891 B(  7-C , 26-H ) :   1.0169 B(  8-C ,  9-O ) :   0.9754
B(  8-C , 17-C ) :   1.3581 B(  9-O , 10-C ) :   0.8558 B( 10-C , 11-C ) :   1.0263
B( 10-C , 27-H ) :   0.9732 B( 10-C , 28-H ) :   0.9793 B( 11-C , 12-N ) :   0.8599
B( 11-C , 29-H ) :   0.9809 B( 11-C , 30-H ) :   0.9750 B( 12-N , 13-C ) :   1.0936
B( 12-N , 16-C ) :   1.1652 B( 13-C , 14-C ) :   1.6190 B( 13-C , 31-H ) :   0.9936
B( 14-C , 15-N ) :   1.3085 B( 14-C , 32-H ) :   1.0062 B( 15-N , 16-C ) :   1.6542
B( 16-C , 33-H ) :   0.9936 B( 17-C , 18-C ) :   1.3947 B( 17-C , 34-H ) :   1.0059
B( 18-C , 19-C ) :   1.4659 B( 18-C , 35-H ) :   0.9987

FINAL SINGLE POINT ENERGY      -910.144952884939

DIPOLE MOMENT
-------------
                                X             Y             Z
Electronic contribution:      0.77541       1.33412      -3.42628
Nuclear contribution   :     -1.68510      -0.66952       3.73700
                        -----------------------------------------
Total Dipole Moment    :     -0.90969       0.66460       0.31072
                        -----------------------------------------
Magnitude (a.u.)       :      1.16866
Magnitude (Debye)      :      2.97051

Rotational constants in cm-1:     0.025999     0.004282     0.003802
Rotational constants in MHz :   779.432693   128.375902   113.993788

                             ****ORCA TERMINATED NORMALLY****
TOTAL RUN TIME: 0 days 0 hours 0 minutes 17 seconds 326 msec
