                         Program Version 5.0.3 -  RELEASE  -
|  1> !RHF def2-SVP TightSCF PAL16
|  2> *xyz 0 1
|  3> C 5.201255687964561 -0.4765579216152813 -0.4595212240594656
|  4> N 3.977866904424134 0.3067641211535965 -0.6799529995709184
|  5> C 3.929670739846123 0.7621279186230433 -2.0729870935572348
|  6> C 2.7992774726919416 -0.5129994709467516 -0.3385960579763352
|  7> C 1.4770209710336575 0.2756466726528764 -0.2353847585060692
|  8> O 0.4523303872261897 -0.6449780177793835 0.15280815943293138
|  9> C -0.705948964980019 -0.0989650313912388 0.8336182112107745
| 10> C -0.26693431097781156 0.23580507412058757 2.285564923100358
| 11> C -1.7569736265470448 -1.2349114464502782 0.9540594634609039
| 12> C -1.4837309674291008 -2.54663361610574 0.5203482908415284
| 13> C -2.4361945407373815 -3.560922897755301 0.646742969551257
| 14> C -3.6791920631322457 -3.284673769097775 1.214431748309737
| 15> C -3.974521159207964 -1.9944167402039963 1.6487436880383133
| 16> C -3.0236713923477483 -0.9788267439582893 1.5228436211053251
| 17> C -1.2909765919897442 1.080808288093685 0.028741452404643195
| 18> C -1.411225775511353 2.382064223141053 0.5534501287517224
| 19> C -1.95598769782034 3.4206359616645083 -0.21557674817385725
| 20> C -2.3888610443618696 3.1719618413393253 -1.5184802226435086
| 21> Cl -3.05984693797749 4.448860588357111 -2.462504797921379
| 22> C -2.2795736841988727 1.8945795480109833 -2.0616027152885685
| 23> C -1.7331049936571046 0.8591330295359171 -1.2950560170804755
| 24> H 5.289392793728935 -0.7487074820283689 0.602209876120518
| 25> H 6.0914963322420475 0.11625315161032569 -0.7031062849543949
| 26> H 5.223472631606601 -1.3953767211888215 -1.061782950100547
| 27> H 3.084249570408533 1.4423464317707966 -2.238367503290392
| 28> H 4.832330024109712 1.3327869628737896 -2.3262263192751407
| 29> H 3.8500806871009905 -0.07025330906760005 -2.785154358796731
| 30> H 2.680538926291141 -1.3499572248862675 -1.0444126297573413
| 31> H 2.9574141972016363 -0.9734288328486617 0.6499104201825677
| 32> H 1.2029996948803592 0.6979481206524121 -1.211582207090235
| 33> H 1.5918283116053131 1.0932236069145707 0.4878002696076231
| 34> H 0.18846654305957047 -0.6448080478600026 2.764560456220158
| 35> H 0.4909854040884755 1.0256615762543122 2.3197318029542586
| 36> H -1.1021892025486304 0.5663284801118227 2.917287023428776
| 37> H -0.5226070777046418 -2.792813054492291 0.06964239252514332
| 38> H -2.202904526674252 -4.565936985157156 0.3042195211137961
| 39> H -4.419193724356203 -4.075405123952811 1.3120914086753
| 40> H -4.9452527081166195 -1.7766079225547806 2.09015788333298
| 41> H -3.2837087466502717 0.02110826940055334 1.8673922366870148
| 42> H -1.086454543207347 2.616006635752479 1.566509879674326
| 43> H -2.0402689520394564 4.420801893459845 0.20964630338250945
| 44> H -2.6173285577489103 1.6933341337397025 -3.077079987678608
| 45> H -1.6540254895969788 -0.13700616989602193 -1.7351372543921186
| 46> *
| 47>
| 48>                          ****END OF INPUT****

CARTESIAN COORDINATES (ANGSTROEM)
---------------------------------
  C      5.201256   -0.476558   -0.459521
  N      3.977867    0.306764   -0.679953
  C      3.929671    0.762128   -2.072987
  C      2.799277   -0.512999   -0.338596
  C      1.477021    0.275647   -0.235385
  O      0.452330   -0.644978    0.152808
  C     -0.705949   -0.098965    0.833618
  C     -0.266934    0.235805    2.285565
  C     -1.756974   -1.234911    0.954059
  C     -1.483731   -2.546634    0.520348
  C     -2.436195   -3.560923    0.646743
  C     -3.679192   -3.284674    1.214432
  C     -3.974521   -1.994417    1.648744
  C     -3.023671   -0.978827    1.522844
  C     -1.290977    1.080808    0.028741
  C     -1.411226    2.382064    0.553450
  C     -1.955988    3.420636   -0.215577
  C     -2.388861    3.171962   -1.518480
  Cl    -3.059847    4.448861   -2.462505
  C     -2.279574    1.894580   -2.061603
  C     -1.733105    0.859133   -1.295056
  H      5.289393   -0.748707    0.602210
  H      6.091496    0.116253   -0.703106
  H      5.223473   -1.395377   -1.061783
  H      3.084250    1.442346   -2.238368
  H      4.832330    1.332787   -2.326226
  H      3.850081   -0.070253   -2.785154
  H      2.680539   -1.349957   -1.044413
  H      2.957414   -0.973429    0.649910
  H      1.203000    0.697948   -1.211582
  H      1.591828    1.093224    0.487800
  H      0.188467   -0.644808    2.764560
  H      0.490985    1.025662    2.319732
  H     -1.102189    0.566328    2.917287
  H     -0.522607   -2.792813    0.069642
  H     -2.202905   -4.565937    0.304220
  H     -4.419194   -4.075405    1.312091
  H     -4.945253   -1.776608    2.090158
  H     -3.283709    0.021108    1.867392
  H     -1.086455    2.616007    1.566510
  H     -2.040269    4.420802    0.209646
  H     -2.617329    1.693334   -3.077080
  H     -1.654025   -0.137006   -1.735137

 Total Charge           Charge          ....    0
 Multiplicity           Mult            ....    1
 Number of Electrons    NEL             ....  162
 Basis Dimension        Dim             ....  408

ORBITAL ENERGIES
----------------

  NO   OCC          E(Eh)            E(eV)
   0   2.0000    -104.795075     -2851.6190
   1   2.0000     -20.553523      -559.2898
   2   2.0000     -15.549359      -423.1196
   3   2.0000     -11.316769      -307.9449
   4   2.0000     -11.303216      -307.5761
   5   2.0000     -11.279819      -306.9395
   6   2.0000     -11.258992      -306.3727
   7   2.0000     -11.257553      -306.3336
   8   2.0000     -11.256002      -306.2914
   9   2.0000     -11.255346      -306.2735
  10   2.0000     -11.254106      -306.2398
  11   2.0000     -11.253056      -306.2112
  12   2.0000     -11.251575      -306.1709
  13   2.0000     -11.250948      -306.1539
  14   2.0000     -11.247944      -306.0721
  15   2.0000     -11.239149      -305.8328
  16   2.0000     -11.237108      -305.7773
  17   2.0000     -11.235349      -305.7294
  18   2.0000     -11.234002      -305.6927
  19   2.0000     -11.233419      -305.6769
  20   2.0000     -11.232967      -305.6646
  21   2.0000     -10.558884      -287.3218
  22   2.0000      -8.034017      -218.6167
  23   2.0000      -8.030406      -218.5184
  24   2.0000      -8.030354      -218.5171
  25   2.0000      -1.355600       -36.8877
  26   2.0000      -1.209572       -32.9141
  27   2.0000      -1.184684       -32.2369
  28   2.0000      -1.141916       -31.0731
  29   2.0000      -1.117853       -30.4183
  30   2.0000      -1.057955       -28.7884
  31   2.0000      -1.020101       -27.7584
  32   2.0000      -1.000709       -27.2307
  33   2.0000      -0.990403       -26.9502
  34   2.0000      -0.985570       -26.8187
  35   2.0000      -0.962029       -26.1781
  36   2.0000      -0.940010       -25.5790
  37   2.0000      -0.881798       -23.9949
  38   2.0000      -0.848897       -23.0997
  39   2.0000      -0.836647       -22.7663
  40   2.0000      -0.815374       -22.1875
  41   2.0000      -0.809486       -22.0272
  42   2.0000      -0.787219       -21.4213
  43   2.0000      -0.766651       -20.8616
  44   2.0000      -0.706277       -19.2188
  45   2.0000      -0.698584       -19.0094
  46   2.0000      -0.670438       -18.2435
  47   2.0000      -0.661112       -17.9898
  48   2.0000      -0.653442       -17.7810
  49   2.0000      -0.643565       -17.5123
  50   2.0000      -0.633246       -17.2315
  51   2.0000      -0.628308       -17.0971
  52   2.0000      -0.618682       -16.8352
  53   2.0000      -0.617433       -16.8012
  54   2.0000      -0.603486       -16.4217
  55   2.0000      -0.599290       -16.3075
  56   2.0000      -0.593982       -16.1631
  57   2.0000      -0.584108       -15.8944
  58   2.0000      -0.580609       -15.7992
  59   2.0000      -0.551453       -15.0058
  60   2.0000      -0.546276       -14.8649
  61   2.0000      -0.542627       -14.7656
  62   2.0000      -0.539924       -14.6921
  63   2.0000      -0.535754       -14.5786
  64   2.0000      -0.526473       -14.3260
  65   2.0000      -0.518277       -14.1030
  66   2.0000      -0.511201       -13.9105
  67   2.0000      -0.508875       -13.8472
  68   2.0000      -0.497791       -13.5456
  69   2.0000      -0.494368       -13.4524
  70   2.0000      -0.486470       -13.2375
  71   2.0000      -0.480405       -13.0725
  72   2.0000      -0.463550       -12.6138
  73   2.0000      -0.455388       -12.3917
  74   2.0000      -0.451915       -12.2972
  75   2.0000      -0.425100       -11.5675
  76   2.0000      -0.362297        -9.8586
  77   2.0000      -0.352755        -9.5990
  78   2.0000      -0.341541        -9.2938
  79   2.0000      -0.333889        -9.0856
  80   2.0000      -0.319458        -8.6929
  81   0.0000       0.109453         2.9784
  82   0.0000       0.112667         3.0658
  83   0.0000       0.129301         3.5185
  84   0.0000       0.140878         3.8335
  85   0.0000       0.169167         4.6033

MULLIKEN ATOMIC CHARGES
-----------------------
   0 C :    0.149356
   1 N :   -0.634300
   2 C :    0.142472
   3 C :    0.137550
   4 C :    0.320802
   5 O :   -0.642227
   6 C :    0.250650
   7 C :    0.075945
   8 C :   -0.171246
   9 C :   -0.007201
  10 C :   -0.032981
  11 C :   -0.036720
  12 C :   -0.036861
  13 C :   -0.015098
  14 C :   -0.150140
  15 C :   -0.031184
  16 C :   -0.003925
  17 C :    0.038384
  18 Cl:   -0.136755
  19 C :   -0.014826
  20 C :    0.019712
  21 H :    0.034334
  22 H :    0.032560
  23 H :    0.004664
  24 H :    0.037679
  25 H :    0.032738
  26 H :    0.004043
  27 H :    0.014685
  28 H :    0.029481
  29 H :    0.023290
  30 H :    0.025620
  31 H :    0.054767
  32 H :    0.031613
  33 H :    0.036321
  34 H :    0.055400
  35 H :    0.038826
  36 H :    0.038774
  37 H :    0.039742
  38 H :    0.038390
  39 H :    0.047475
  40 H :    0.047687
  41 H :    0.049967
  42 H :    0.060537
Sum of atomic charges:   -0.0000000

LOEWDIN ATOMIC CHARGES
----------------------
   0 C :    0.056572
   1 N :   -0.209432
   2 C :    0.052325
   3 C :    0.057024
   4 C :    0.129709
   5 O :   -0.257269
   6 C :    0.111729
   7 C :   -0.027514
   8 C :   -0.026556
   9 C :   -0.018987
  10 C :   -0.026464
  11 C :   -0.030332
  12 C :   -0.026164
  13 C :   -0.021926
  14 C :   -0.040577
  15 C :   -0.017949
  16 C :   -0.039907
  17 C :   -0.112316
  18 Cl:    0.092070
  19 C :   -0.038450
  20 C :    0.008182
  21 H :    0.013410
  22 H :    0.012865
  23 H :   -0.006152
  24 H :    0.011847
  25 H :    0.014085
  26 H :   -0.006484
  27 H :   -0.003716
  28 H :    0.014621
  29 H :    0.000991
  30 H :    0.004329
  31 H :    0.030966
  32 H :    0.012805
  33 H :    0.019079
  34 H :    0.030912
  35 H :    0.026162
  36 H :    0.024940
  37 H :    0.026951
  38 H :    0.023972
  39 H :    0.030362
  40 H :    0.033137
  41 H :    0.034191
  42 H :    0.036958

  Mayer bond orders larger than 0.100000
B(  0-C ,  1-N ) :   0.9455 B(  0-C , 21-H ) :   0.9919 B(  0-C , 22-H ) :   0.9922
B(  0-C , 23-H ) :   0.9761 B(  1-N ,  2-C ) :   0.9368 B(  1-N ,  3-C ) :   0.9359
B(  2-C , 24-H ) :   0.9923 B(  2-C , 25-H ) :   0.9915 B(  2-C , 26-H ) :   0.9753
B(  3-C ,  4-C ) :   1.0447 B(  3-C , 27-H ) :   0.9670 B(  3-C , 28-H ) :   0.9743
B(  4-C ,  5-O ) :   0.8566 B(  4-C , 29-H ) :   0.9736 B(  4-C , 30-H ) :   0.9643
B(  5-O ,  6-C ) :   0.8745 B(  6-C ,  7-C ) :   1.0632 B(  6-C ,  8-C ) :   0.9721
B(  6-C , 14-C ) :   0.9333 B(  7-C , 31-H ) :   0.9753 B(  7-C , 32-H ) :   0.9733
B(  7-C , 33-H ) :   0.9697 B(  8-C ,  9-C ) :   1.4515 B(  8-C , 13-C ) :   1.3971
B(  9-C , 10-C ) :   1.4027 B(  9-C , 34-H ) :   0.9980 B( 10-C , 11-C ) :   1.4177
B( 10-C , 35-H ) :   1.0016 B( 11-C , 12-C ) :   1.4038 B( 11-C , 36-H ) :   0.9994
B( 12-C , 13-C ) :   1.4459 B( 12-C , 37-H ) :   1.0001 B( 13-C , 38-H ) :   0.9981
B( 14-C , 15-C ) :   1.4436 B( 14-C , 20-C ) :   1.3895 B( 15-C , 16-C ) :   1.4090
B( 15-C , 39-H ) :   0.9948 B( 16-C , 17-C ) :   1.4207 B( 16-C , 40-H ) :   0.9996
B( 17-C , 18-Cl) :   0.9498 B( 17-C , 19-C ) :   1.3883 B( 19-C , 20-C ) :   1.4481
B( 19-C , 41-H ) :   1.0037 B( 20-C , 42-H ) :   0.9972

FINAL SINGLE POINT ENERGY     -1282.459449955021

DIPOLE MOMENT
-------------
                                X             Y             Z
Electronic contribution:    -29.96001      17.96951      -8.36355
Nuclear contribution   :     30.36538     -18.22492       8.62376
                        -----------------------------------------
Total Dipole Moment    :      0.40537      -0.25541       0.26021
                        -----------------------------------------
Magnitude (a.u.)       :      0.54522
Magnitude (Debye)      :      1.38584

Rotational constants in cm-1:     0.007977     0.006850     0.004134
Rotational constants in MHz :   239.155854   205.349142   123.947708

                             ****ORCA TERMINATED NORMALLY****
TOTAL RUN TIME: 0 days 0 hours 0 minutes 25 seconds 245 msec
