                         Program Version 5.0.3 -  RELEASE  -
|  1> !RHF def2-SVP TightSCF PAL16
|  2> *xyz 0 1
|  3> C -4.039504402515486 -1.3051079400734127 0.4013599937339149
|  4> C -2.80893498006188 -1.4941000771026487 -0.43542022655243934
|  5> C -2.894029986135405 -2.1298741828291825 -1.6791198831092433
|  6> C -1.7551224843949753 -2.2968744714252276 -2.468643042786414
|  7> C -0.5143524845187869 -1.8340334452701172 -2.027155282175707
|  8> C -0.4019057493880966 -1.1929482545423826 -0.7891983880039789
|  9> C -1.5622467911972266 -1.0052092518874716 -0.021429830741023406
| 10> O -1.449723161694156 -0.3844421482155368 1.2051122293268528
| 11> C -1.2709083163050632 0.981497742561732 1.1506028048505685
| 12> C -2.2288481148799995 1.7155669787133236 1.8663808547047915
| 13> C -2.1995141381486647 3.1068603869593794 1.8717791946412603
| 14> C -1.2100693090921801 3.7724417488104267 1.1608529016706337
| 15> C -0.23904332748054957 3.043031847373911 0.47078197367385977
| 16> C -0.22020420139776284 1.6283322740256843 0.47594894324497344
| 17> C 0.9101529489753476 0.9168859874901611 -0.28230909010003424
| 18> O 0.7512886650482493 1.3200522890087791 -1.6658467396787373
| 19> C 2.3122541734349467 1.4408879588734067 0.1500409453277008
| 20> C 3.205552817049269 0.35648291558499734 0.753499864414156
| 21> N 3.4188125315831526 -0.7575378357464312 -0.17329716004884876
| 22> C 4.1087674659765225 -1.8619735057438 0.48841477385053156
| 23> C 2.1868631398468827 -1.2017022976591794 -0.8500141072409355
| 24> C 0.89428607526802 -0.6395850478107145 -0.22392134845829825
| 25> H -4.85232489470597 -1.957912640811766 0.06571430787388506
| 26> H -3.8389694250098834 -1.5540167653156824 1.4485151637706677
| 27> H -4.383558561779889 -0.26839905778736617 0.33507649507866083
| 28> H -3.8492601162128897 -2.5020789781795996 -2.042978293099115
| 29> H -1.8349113153052334 -2.7916451959039326 -3.4339294476855047
| 30> H 0.3494888939065227 -1.9755456639132893 -2.6713505663412174
| 31> H -3.0139720393896097 1.1933782037885425 2.4076933583375753
| 32> H -2.9533013295639003 3.667371628569656 2.4177004674201115
| 33> H -1.1875670590597645 4.859132153489983 1.1420170142198014
| 34> H 0.5208872822933108 3.592260632256913 -0.08545824378668647
| 35> H -0.1963546226975111 1.2341544267265667 -1.8762876097431598
| 36> H 2.831670290217127 1.8864662318506569 -0.7095807406353949
| 37> H 2.23612391457407 2.237809819613331 0.8993758637702786
| 38> H 2.7687154416265645 0.012605608681177919 1.7005896570350278
| 39> H 4.175468753042478 0.804944237250131 1.0017614809443136
| 40> H 3.4975017235297328 -2.312629487142779 1.2785259325754987
| 41> H 5.050318025977516 -1.519891304820865 0.9323680927477341
| 42> H 4.370178406431943 -2.641785112698023 -0.2355474133818695
| 43> H 2.2646816895022166 -0.8797363556197941 -1.8962704328190174
| 44> H 2.1342180662573838 -2.298256715508382 -0.8843256605766862
| 45> H 0.9173965063934735 -0.9648773356213438 0.8279711937509322
| 46> *
| 47>
| 48>                          ****END OF INPUT****

CARTESIAN COORDINATES (ANGSTROEM)
---------------------------------
  C     -4.039504   -1.305108    0.401360
  C     -2.808935   -1.494100   -0.435420
  C     -2.894030   -2.129874   -1.679120
  C     -1.755122   -2.296874   -2.468643
  C     -0.514352   -1.834033   -2.027155
  C     -0.401906   -1.192948   -0.789198
  C     -1.562247   -1.005209   -0.021430
  O     -1.449723   -0.384442    1.205112
  C     -1.270908    0.981498    1.150603
  C     -2.228848    1.715567    1.866381
  C     -2.199514    3.106860    1.871779
  C     -1.210069    3.772442    1.160853
  C     -0.239043    3.043032    0.470782
  C     -0.220204    1.628332    0.475949
  C      0.910153    0.916886   -0.282309
  O      0.751289    1.320052   -1.665847
  C      2.312254    1.440888    0.150041
  C      3.205553    0.356483    0.753500
  N      3.418813   -0.757538   -0.173297
  C      4.108767   -1.861974    0.488415
  C      2.186863   -1.201702   -0.850014
  C      0.894286   -0.639585   -0.223921
  H     -4.852325   -1.957913    0.065714
  H     -3.838969   -1.554017    1.448515
  H     -4.383559   -0.268399    0.335076
  H     -3.849260   -2.502079   -2.042978
  H     -1.834911   -2.791645   -3.433929
  H      0.349489   -1.975546   -2.671351
  H     -3.013972    1.193378    2.407693
  H     -2.953301    3.667372    2.417700
  H     -1.187567    4.859132    1.142017
  H      0.520887    3.592261   -0.085458
  H     -0.196355    1.234154   -1.876288
  H      2.831670    1.886466   -0.709581
  H      2.236124    2.237810    0.899376
  H      2.768715    0.012606    1.700590
  H      4.175469    0.804944    1.001761
  H      3.497502   -2.312629    1.278526
  H      5.050318   -1.519891    0.932368
  H      4.370178   -2.641785   -0.235547
  H      2.264682   -0.879736   -1.896270
  H      2.134218   -2.298257   -0.884326
  H      0.917397   -0.964877    0.827971

 Total Charge           Charge          ....    0
 Multiplicity           Mult            ....    1
 Number of Electrons    NEL             ....  158
 Basis Dimension        Dim             ....  413

ORBITAL ENERGIES
----------------

  NO   OCC          E(Eh)            E(eV)
   0   2.0000     -20.588630      -560.2451
   1   2.0000     -20.545128      -559.0613
   2   2.0000     -15.536678      -422.7745
   3   2.0000     -11.311231      -307.7942
   4   2.0000     -11.303371      -307.5804
   5   2.0000     -11.298440      -307.4462
   6   2.0000     -11.251917      -306.1802
   7   2.0000     -11.249464      -306.1135
   8   2.0000     -11.249072      -306.1028
   9   2.0000     -11.248958      -306.0997
  10   2.0000     -11.248825      -306.0961
  11   2.0000     -11.248335      -306.0828
  12   2.0000     -11.246467      -306.0319
  13   2.0000     -11.246433      -306.0310
  14   2.0000     -11.241698      -305.9021
  15   2.0000     -11.241365      -305.8931
  16   2.0000     -11.241222      -305.8892
  17   2.0000     -11.240544      -305.8708
  18   2.0000     -11.240419      -305.8673
  19   2.0000     -11.239616      -305.8455
  20   2.0000     -11.232574      -305.6539
  21   2.0000     -11.224716      -305.4401
  22   2.0000      -1.417345       -38.5679
  23   2.0000      -1.336838       -36.3772
  24   2.0000      -1.212689       -32.9989
  25   2.0000      -1.156427       -31.4680
  26   2.0000      -1.141365       -31.0581
  27   2.0000      -1.078625       -29.3509
  28   2.0000      -1.046102       -28.4659
  29   2.0000      -1.030006       -28.0279
  30   2.0000      -1.008622       -27.4460
  31   2.0000      -1.005127       -27.3509
  32   2.0000      -0.970611       -26.4117
  33   2.0000      -0.929766       -25.3002
  34   2.0000      -0.915313       -24.9069
  35   2.0000      -0.880810       -23.9681
  36   2.0000      -0.858963       -23.3736
  37   2.0000      -0.829713       -22.5776
  38   2.0000      -0.809555       -22.0291
  39   2.0000      -0.800446       -21.7812
  40   2.0000      -0.790438       -21.5089
  41   2.0000      -0.733780       -19.9672
  42   2.0000      -0.721387       -19.6299
  43   2.0000      -0.696992       -18.9661
  44   2.0000      -0.686881       -18.6910
  45   2.0000      -0.682424       -18.5697
  46   2.0000      -0.666323       -18.1316
  47   2.0000      -0.655467       -17.8362
  48   2.0000      -0.647933       -17.6312
  49   2.0000      -0.636137       -17.3102
  50   2.0000      -0.628872       -17.1125
  51   2.0000      -0.609520       -16.5859
  52   2.0000      -0.604190       -16.4408
  53   2.0000      -0.595832       -16.2134
  54   2.0000      -0.590819       -16.0770
  55   2.0000      -0.582619       -15.8539
  56   2.0000      -0.577267       -15.7082
  57   2.0000      -0.568786       -15.4775
  58   2.0000      -0.555689       -15.1211
  59   2.0000      -0.548892       -14.9361
  60   2.0000      -0.544265       -14.8102
  61   2.0000      -0.536818       -14.6076
  62   2.0000      -0.529487       -14.4081
  63   2.0000      -0.516747       -14.0614
  64   2.0000      -0.514931       -14.0120
  65   2.0000      -0.510489       -13.8911
  66   2.0000      -0.505683       -13.7603
  67   2.0000      -0.496588       -13.5128
  68   2.0000      -0.486799       -13.2465
  69   2.0000      -0.481974       -13.1152
  70   2.0000      -0.476646       -12.9702
  71   2.0000      -0.462110       -12.5747
  72   2.0000      -0.457303       -12.4439
  73   2.0000      -0.434967       -11.8361
  74   2.0000      -0.343437        -9.3454
  75   2.0000      -0.339911        -9.2494
  76   2.0000      -0.334201        -9.0941
  77   2.0000      -0.332128        -9.0377
  78   2.0000      -0.327487        -8.9114
  79   0.0000       0.112317         3.0563
  80   0.0000       0.126453         3.4410
  81   0.0000       0.131819         3.5870
  82   0.0000       0.137539         3.7426
  83   0.0000       0.176317         4.7978

MULLIKEN ATOMIC CHARGES
-----------------------
   0 C :    0.101051
   1 C :   -0.217377
   2 C :   -0.034304
   3 C :   -0.018888
   4 C :   -0.049866
   5 C :   -0.136510
   6 C :    0.279146
   7 O :   -0.569747
   8 C :    0.269017
   9 C :   -0.061208
  10 C :   -0.004650
  11 C :   -0.048025
  12 C :    0.009476
  13 C :   -0.139382
  14 C :    0.101742
  15 O :   -0.456493
  16 C :    0.041476
  17 C :    0.209423
  18 N :   -0.680845
  19 C :    0.161226
  20 C :    0.336242
  21 C :   -0.047838
  22 H :    0.029594
  23 H :    0.054287
  24 H :    0.053693
  25 H :    0.031377
  26 H :    0.038163
  27 H :    0.042339
  28 H :    0.042462
  29 H :    0.043916
  30 H :    0.041295
  31 H :    0.053854
  32 H :    0.206986
  33 H :    0.058377
  34 H :    0.043461
  35 H :   -0.001451
  36 H :    0.029942
  37 H :    0.001706
  38 H :    0.026992
  39 H :    0.033159
  40 H :    0.040115
  41 H :    0.025770
  42 H :    0.060297
Sum of atomic charges:   -0.0000000

LOEWDIN ATOMIC CHARGES
----------------------
   0 C :   -0.018019
   1 C :   -0.040479
   2 C :   -0.028992
   3 C :   -0.025260
   4 C :   -0.027923
   5 C :   -0.038721
   6 C :    0.069492
   7 O :   -0.162279
   8 C :    0.085994
   9 C :   -0.041380
  10 C :   -0.013457
  11 C :   -0.041182
  12 C :    0.005292
  13 C :   -0.070906
  14 C :    0.100414
  15 O :   -0.190058
  16 C :   -0.012229
  17 C :    0.062143
  18 N :   -0.205885
  19 C :    0.057031
  20 C :    0.077139
  21 C :   -0.031477
  22 H :    0.022394
  23 H :    0.029395
  24 H :    0.029035
  25 H :    0.026000
  26 H :    0.027069
  27 H :    0.029465
  28 H :    0.032720
  29 H :    0.029065
  30 H :    0.027658
  31 H :    0.033652
  32 H :    0.080427
  33 H :    0.031434
  34 H :    0.022775
  35 H :   -0.010964
  36 H :    0.013625
  37 H :   -0.008961
  38 H :    0.012103
  39 H :    0.011502
  40 H :    0.010954
  41 H :    0.012705
  42 H :    0.028689

  Mayer bond orders larger than 0.100000
B(  0-C ,  1-C ) :   0.9898 B(  0-C , 22-H ) :   0.9817 B(  0-C , 23-H ) :   0.9785
B(  0-C , 24-H ) :   0.9731 B(  1-C ,  2-C ) :   1.4265 B(  1-C ,  6-C ) :   1.4612
B(  2-C ,  3-C ) :   1.4209 B(  2-C , 25-H ) :   1.0018 B(  3-C ,  4-C ) :   1.4132
B(  3-C , 26-H ) :   1.0000 B(  4-C ,  5-C ) :   1.4326 B(  4-C , 27-H ) :   1.0031
B(  5-C ,  6-C ) :   1.4188 B(  5-C , 21-C ) :   0.9440 B(  6-C ,  7-O ) :   0.9233
B(  7-O ,  8-C ) :   0.9148 B(  8-C ,  9-C ) :   1.4170 B(  8-C , 13-C ) :   1.4332
B(  9-C , 10-C ) :   1.4259 B(  9-C , 28-H ) :   1.0025 B( 10-C , 11-C ) :   1.3770
B( 10-C , 29-H ) :   0.9985 B( 11-C , 12-C ) :   1.4555 B( 11-C , 30-H ) :   1.0025
B( 12-C , 13-C ) :   1.3918 B( 12-C , 31-H ) :   0.9973 B( 13-C , 14-C ) :   0.9423
B( 14-C , 15-O ) :   0.8993 B( 14-C , 16-C ) :   0.9836 B( 14-C , 21-C ) :   0.9761
B( 15-O , 32-H ) :   0.9646 B( 16-C , 17-C ) :   1.0949 B( 16-C , 33-H ) :   0.9430
B( 16-C , 34-H ) :   0.9726 B( 17-C , 18-N ) :   0.9327 B( 17-C , 35-H ) :   0.9593
B( 17-C , 36-H ) :   0.9691 B( 18-N , 19-C ) :   0.9467 B( 18-N , 20-C ) :   0.9060
B( 19-C , 37-H ) :   0.9772 B( 19-C , 38-H ) :   0.9895 B( 19-C , 39-H ) :   0.9924
B( 20-C , 21-C ) :   1.0635 B( 20-C , 40-H ) :   0.9580 B( 20-C , 41-H ) :   0.9754
B( 21-C , 42-H ) :   0.9326

FINAL SINGLE POINT ENERGY      -935.173363691927

DIPOLE MOMENT
-------------
                                X             Y             Z
Electronic contribution:     -8.76622       3.79331      -0.90292
Nuclear contribution   :      8.11627      -3.78431       1.17825
                        -----------------------------------------
Total Dipole Moment    :     -0.64995       0.00900       0.27534
                        -----------------------------------------
Magnitude (a.u.)       :      0.70592
Magnitude (Debye)      :      1.79431

Rotational constants in cm-1:     0.012173     0.009730     0.006400
Rotational constants in MHz :   364.948750   291.684773   191.875817

                             ****ORCA TERMINATED NORMALLY****
TOTAL RUN TIME: 0 days 0 hours 0 minutes 33 seconds 140 msec
