                         Program Version 5.0.3 -  RELEASE  -
|  1> !RHF def2-SVP TightSCF PAL16
|  2> *xyz 0 1
|  3> C -2.635697815138047 1.0367292114669517 -1.2063446484677487
|  4> C -2.229599585289765 -0.42865319201971464 -1.1476589282333771
|  5> C -1.2354702215612134 -0.8297203986116338 -0.03516421973974376
|  6> C -1.7932633777529525 -0.49645053359487745 1.335374951228864
|  7> O -1.3864686124311008 0.3344310163910294 2.1280164176156715
|  8> O -2.8619044076918487 -1.2579517599795524 1.6500950033440207
|  9> C 0.2433569307766298 -0.38340246586431054 -0.2320929417520007
| 10> O 0.6515535052413789 -0.850950632858605 -1.5385205252567393
| 11> C 1.177781026699076 -1.070006480843774 0.7901590327617406
| 12> C 2.6620772808366273 -0.7927932103843562 0.524102503523709
| 13> C 2.934733044228203 0.6067556896956052 -0.0233937119497688
| 14> C 1.8242438525509548 1.5814364263595884 0.3339991590301697
| 15> C 0.4680650275846322 1.1462538972576584 -0.23689117223231587
| 16> H -3.464945428655745 1.1602535073588125 -1.9114612145972536
| 17> H -1.8220040478683426 1.6709254671968723 -1.5624332981647922
| 18> H -2.972395394405589 1.40658228659936 -0.23377767509528685
| 19> H -1.8360015632060935 -0.7272756802593062 -2.1262762420662122
| 20> H -3.1493654042626438 -1.012661288468735 -1.0088195761159078
| 21> H -1.2050436257596395 -1.9306556472606602 -0.0704669230250498
| 22> H -3.1271007603276124 -0.9424473474839242 2.5399143205908494
| 23> H 0.6544739797512193 -1.8236539896288215 -1.5287384912436328
| 24> H 0.9381481919468494 -0.7364355477689829 1.8065820115315696
| 25> H 1.0312381424005654 -2.157443291628537 0.7758002233659657
| 26> H 3.0609850461810573 -1.5329482369507021 -0.18038058782674607
| 27> H 3.2162266756961024 -0.9381429266417252 1.4595589838746392
| 28> H 3.8958176170319487 0.9699912982471701 0.3581030626375053
| 29> H 3.034745706730213 0.5589705566060936 -1.114943834050311
| 30> H 2.0696694012459536 2.5837910532979684 -0.03548929505198696
| 31> H 1.7502566320806203 1.6623899503101132 1.4259331350524826
| 32> H -0.30312927014953395 1.6736074191536432 0.33256475473347563
| 33> H 0.4090174535173059 1.5194748503078968 -1.2673502744210985
| 34> *
| 35>
| 36>                          ****END OF INPUT****

CARTESIAN COORDINATES (ANGSTROEM)
---------------------------------
  C     -2.635698    1.036729   -1.206345
  C     -2.229600   -0.428653   -1.147659
  C     -1.235470   -0.829720   -0.035164
  C     -1.793263   -0.496451    1.335375
  O     -1.386469    0.334431    2.128016
  O     -2.861904   -1.257952    1.650095
  C      0.243357   -0.383402   -0.232093
  O      0.651554   -0.850951   -1.538521
  C      1.177781   -1.070006    0.790159
  C      2.662077   -0.792793    0.524103
  C      2.934733    0.606756   -0.023394
  C      1.824244    1.581436    0.333999
  C      0.468065    1.146254   -0.236891
  H     -3.464945    1.160254   -1.911461
  H     -1.822004    1.670925   -1.562433
  H     -2.972395    1.406582   -0.233778
  H     -1.836002   -0.727276   -2.126276
  H     -3.149365   -1.012661   -1.008820
  H     -1.205044   -1.930656   -0.070467
  H     -3.127101   -0.942447    2.539914
  H      0.654474   -1.823654   -1.528738
  H      0.938148   -0.736436    1.806582
  H      1.031238   -2.157443    0.775800
  H      3.060985   -1.532948   -0.180381
  H      3.216227   -0.938143    1.459559
  H      3.895818    0.969991    0.358103
  H      3.034746    0.558971   -1.114944
  H      2.069669    2.583791   -0.035489
  H      1.750257    1.662390    1.425933
  H     -0.303129    1.673607    0.332565
  H      0.409017    1.519475   -1.267350

 Total Charge           Charge          ....    0
 Multiplicity           Mult            ....    1
 Number of Electrons    NEL             ....  102
 Basis Dimension        Dim             ....  272

ORBITAL ENERGIES
----------------

  NO   OCC          E(Eh)            E(eV)
   0   2.0000     -20.611098      -560.8565
   1   2.0000     -20.550297      -559.2020
   2   2.0000     -20.548964      -559.1657
   3   2.0000     -11.394647      -310.0641
   4   2.0000     -11.294746      -307.3457
   5   2.0000     -11.256023      -306.2919
   6   2.0000     -11.237168      -305.7789
   7   2.0000     -11.223473      -305.4062
   8   2.0000     -11.221706      -305.3582
   9   2.0000     -11.216524      -305.2171
  10   2.0000     -11.213520      -305.1354
  11   2.0000     -11.211890      -305.0910
  12   2.0000     -11.208784      -305.0065
  13   2.0000      -1.454373       -39.5755
  14   2.0000      -1.342415       -36.5290
  15   2.0000      -1.339381       -36.4464
  16   2.0000      -1.104490       -30.0547
  17   2.0000      -1.075775       -29.2733
  18   2.0000      -0.997782       -27.1510
  19   2.0000      -0.991529       -26.9809
  20   2.0000      -0.949267       -25.8309
  21   2.0000      -0.849793       -23.1240
  22   2.0000      -0.836644       -22.7662
  23   2.0000      -0.826897       -22.5010
  24   2.0000      -0.772981       -21.0339
  25   2.0000      -0.721514       -19.6334
  26   2.0000      -0.704486       -19.1700
  27   2.0000      -0.693040       -18.8586
  28   2.0000      -0.662580       -18.0297
  29   2.0000      -0.656973       -17.8771
  30   2.0000      -0.651057       -17.7162
  31   2.0000      -0.637981       -17.3603
  32   2.0000      -0.609626       -16.5888
  33   2.0000      -0.599308       -16.3080
  34   2.0000      -0.582237       -15.8435
  35   2.0000      -0.574480       -15.6324
  36   2.0000      -0.562620       -15.3097
  37   2.0000      -0.543723       -14.7954
  38   2.0000      -0.535071       -14.5600
  39   2.0000      -0.520359       -14.1597
  40   2.0000      -0.509305       -13.8589
  41   2.0000      -0.507587       -13.8121
  42   2.0000      -0.497500       -13.5377
  43   2.0000      -0.488554       -13.2942
  44   2.0000      -0.480389       -13.0720
  45   2.0000      -0.470313       -12.7979
  46   2.0000      -0.466746       -12.7008
  47   2.0000      -0.451289       -12.2802
  48   2.0000      -0.436783       -11.8855
  49   2.0000      -0.430888       -11.7251
  50   2.0000      -0.412433       -11.2229
  51   0.0000       0.149009         4.0547
  52   0.0000       0.175240         4.7685
  53   0.0000       0.182815         4.9746
  54   0.0000       0.196174         5.3382
  55   0.0000       0.202265         5.5039

MULLIKEN ATOMIC CHARGES
-----------------------
   0 C :   -0.040635
   1 C :   -0.023343
   2 C :   -0.190071
   3 C :    0.499981
   4 O :   -0.419374
   5 O :   -0.352408
   6 C :   -0.036483
   7 O :   -0.459892
   8 C :    0.013457
   9 C :    0.007376
  10 C :   -0.036380
  11 C :   -0.073654
  12 C :    0.083155
  13 H :    0.035201
  14 H :    0.043521
  15 H :    0.035586
  16 H :    0.052724
  17 H :    0.048527
  18 H :    0.053645
  19 H :    0.223941
  20 H :    0.191857
  21 H :    0.056904
  22 H :    0.013169
  23 H :    0.021204
  24 H :    0.026228
  25 H :    0.026301
  26 H :    0.034541
  27 H :    0.029114
  28 H :    0.029812
  29 H :    0.059860
  30 H :    0.046136
Sum of atomic charges:    0.0000000

LOEWDIN ATOMIC CHARGES
----------------------
   0 C :   -0.037245
   1 C :   -0.006748
   2 C :   -0.059828
   3 C :    0.218695
   4 O :   -0.279175
   5 O :   -0.106517
   6 C :    0.087806
   7 O :   -0.187584
   8 C :   -0.030379
   9 C :   -0.017178
  10 C :   -0.023397
  11 C :   -0.017007
  12 C :   -0.015066
  13 H :    0.019700
  14 H :    0.019355
  15 H :    0.014588
  16 H :    0.024555
  17 H :    0.020335
  18 H :    0.030937
  19 H :    0.113851
  20 H :    0.077856
  21 H :    0.022559
  22 H :    0.007910
  23 H :    0.011120
  24 H :    0.014122
  25 H :    0.012252
  26 H :    0.015374
  27 H :    0.015671
  28 H :    0.012512
  29 H :    0.021859
  30 H :    0.019065

  Mayer bond orders larger than 0.100000
B(  0-C ,  1-C ) :   1.0383 B(  0-C , 13-H ) :   0.9849 B(  0-C , 14-H ) :   0.9807
B(  0-C , 15-H ) :   0.9827 B(  1-C ,  2-C ) :   1.0236 B(  1-C , 16-H ) :   0.9672
B(  1-C , 17-H ) :   0.9750 B(  2-C ,  3-C ) :   0.9104 B(  2-C ,  6-C ) :   1.0001
B(  2-C , 18-H ) :   0.9512 B(  3-C ,  4-O ) :   1.9544 B(  3-C ,  5-O ) :   1.1405
B(  5-O , 19-H ) :   0.9422 B(  6-C ,  7-O ) :   0.8553 B(  6-C ,  8-C ) :   1.0164
B(  6-C , 12-C ) :   0.9245 B(  7-O , 20-H ) :   0.9699 B(  8-C ,  9-C ) :   1.0501
B(  8-C , 21-H ) :   0.9518 B(  8-C , 22-H ) :   0.9679 B(  9-C , 10-C ) :   1.0211
B(  9-C , 23-H ) :   0.9714 B(  9-C , 24-H ) :   0.9761 B( 10-C , 11-C ) :   1.0611
B( 10-C , 25-H ) :   0.9795 B( 10-C , 26-H ) :   0.9646 B( 11-C , 12-C ) :   1.0550
B( 11-C , 27-H ) :   0.9765 B( 11-C , 28-H ) :   0.9635 B( 12-C , 29-H ) :   0.9685
B( 12-C , 30-H ) :   0.9577

FINAL SINGLE POINT ENERGY      -613.309186005795

DIPOLE MOMENT
-------------
                                X             Y             Z
Electronic contribution:     -5.86643      -4.03965       5.32763
Nuclear contribution   :      5.47771       3.33925      -5.31799
                        -----------------------------------------
Total Dipole Moment    :     -0.38872      -0.70041       0.00963
                        -----------------------------------------
Magnitude (a.u.)       :      0.80110
Magnitude (Debye)      :      2.03624

Rotational constants in cm-1:     0.040903     0.019036     0.017295
Rotational constants in MHz :  1226.246355   570.695376   518.482125

                             ****ORCA TERMINATED NORMALLY****
TOTAL RUN TIME: 0 days 0 hours 0 minutes 11 seconds 132 msec
