                         Program Version 5.0.3 -  RELEASE  -
|  1> !RHF def2-SVP TightSCF PAL16
|  2> *xyz 0 1
|  3> O -3.7956001075925734 0.33857248934301293 1.9690802696545735
|  4> C -3.9322001618812226 0.06275166957917801 0.5667308060408305
|  5> C -4.535251871235726 1.2691813684798583 -0.1644962563994175
|  6> N -3.675655136278813 2.449864955832289 -0.1677628854506676
|  7> C -2.4723798316910712 2.5006395376820225 -0.8230469528617446
|  8> N -1.5820902216677117 1.6257076425153765 -1.1464324212400918
|  9> C -1.712224657865476 0.3384905455803804 -0.7449806895642901
| 10> C -2.6492580940099377 -0.3947409118044845 -0.032436668867355245
| 11> N -2.2523220308731156 -1.7067463709555848 0.12450670842002551
| 12> C -1.095563553027234 -1.785434143497136 -0.489144636687794
| 13> N -0.7194295997879547 -0.5815973862534819 -1.0171999016225028
| 14> C 0.48839893234133397 -0.33182975832205447 -1.7904914431426162
| 15> C 1.7417964389947516 -0.8665825986067531 -1.1256936796318522
| 16> C 2.333924889452112 -2.0219623047847555 -1.6719408053130982
| 17> C 3.478813617486659 -2.5713520884194803 -1.106878498268487
| 18> C 4.052334908218978 -1.9753974784705777 0.011778436954272473
| 19> C 3.493591659749547 -0.8221839307656083 0.5809349136636042
| 20> C 4.0927280441916025 -0.23863944440386387 1.7097188942251293
| 21> C 3.5587654995640006 0.9074012381190742 2.294871070898414
| 22> C 2.4182209238823504 1.4856289467910366 1.7563530836953125
| 23> C 1.8115156221490447 0.9179083568808646 0.6330998639902942
| 24> C 2.3254919154873743 -0.24707866940397788 0.017032085340146056
| 25> H -3.1624365018789993 -0.32941200537854015 2.2924116225281863
| 26> H -4.654085114846797 -0.7601037129481057 0.4927024439722833
| 27> H -4.783203703020171 1.0069593284871254 -1.2002867170300335
| 28> H -5.470960110308505 1.5477846862200364 0.33438289036987123
| 29> H -4.194422043622439 3.3211049287922436 -0.1424196918010987
| 30> H -2.2478084787547314 3.540809157423079 -1.1198464009355253
| 31> H -0.4906454048867788 -2.6790975939580512 -0.5727963572729426
| 32> H 0.32516281108613504 -0.8051570989435948 -2.766733431475139
| 33> H 0.5984543571934986 0.7405461905678158 -1.9806788843407594
| 34> H 1.9008879802749084 -2.5049395146780573 -2.5460559761296344
| 35> H 3.925884612633612 -3.4644317049793463 -1.5357888407594764
| 36> H 4.947679300957982 -2.421410366444851 0.4400793558718106
| 37> H 4.987342707971563 -0.6775915979405728 2.1464541005649465
| 38> H 4.032472172698035 1.3450632451689026 3.169242870466358
| 39> H 1.9922990918105017 2.378333262271785 2.2071371361189542
| 40> H 0.9197711370854255 1.4089411312253275 0.25003385327798644
| 41> *
| 42>
| 43>                          ****END OF INPUT****

CARTESIAN COORDINATES (ANGSTROEM)
---------------------------------
  O     -3.795600    0.338572    1.969080
  C     -3.932200    0.062752    0.566731
  C     -4.535252    1.269181   -0.164496
  N     -3.675655    2.449865   -0.167763
  C     -2.472380    2.500640   -0.823047
  N     -1.582090    1.625708   -1.146432
  C     -1.712225    0.338491   -0.744981
  C     -2.649258   -0.394741   -0.032437
  N     -2.252322   -1.706746    0.124507
  C     -1.095564   -1.785434   -0.489145
  N     -0.719430   -0.581597   -1.017200
  C      0.488399   -0.331830   -1.790491
  C      1.741796   -0.866583   -1.125694
  C      2.333925   -2.021962   -1.671941
  C      3.478814   -2.571352   -1.106878
  C      4.052335   -1.975397    0.011778
  C      3.493592   -0.822184    0.580935
  C      4.092728   -0.238639    1.709719
  C      3.558765    0.907401    2.294871
  C      2.418221    1.485629    1.756353
  C      1.811516    0.917908    0.633100
  C      2.325492   -0.247079    0.017032
  H     -3.162437   -0.329412    2.292412
  H     -4.654085   -0.760104    0.492702
  H     -4.783204    1.006959   -1.200287
  H     -5.470960    1.547785    0.334383
  H     -4.194422    3.321105   -0.142420
  H     -2.247808    3.540809   -1.119846
  H     -0.490645   -2.679098   -0.572796
  H      0.325163   -0.805157   -2.766733
  H      0.598454    0.740546   -1.980679
  H      1.900888   -2.504940   -2.546056
  H      3.925885   -3.464432   -1.535789
  H      4.947679   -2.421410    0.440079
  H      4.987343   -0.677592    2.146454
  H      4.032472    1.345063    3.169243
  H      1.992299    2.378333    2.207137
  H      0.919771    1.408941    0.250034

 Total Charge           Charge          ....    0
 Multiplicity           Mult            ....    1
 Number of Electrons    NEL             ....  154
 Basis Dimension        Dim             ....  388

ORBITAL ENERGIES
----------------

  NO   OCC          E(Eh)            E(eV)
   0   2.0000     -20.531912      -558.7017
   1   2.0000     -15.607341      -424.6974
   2   2.0000     -15.598084      -424.4454
   3   2.0000     -15.553983      -423.2454
   4   2.0000     -15.535123      -422.7322
   5   2.0000     -11.339727      -308.5697
   6   2.0000     -11.287879      -307.1588
   7   2.0000     -11.285358      -307.0902
   8   2.0000     -11.282099      -307.0015
   9   2.0000     -11.278545      -306.9048
  10   2.0000     -11.277014      -306.8631
  11   2.0000     -11.255396      -306.2749
  12   2.0000     -11.249514      -306.1148
  13   2.0000     -11.246943      -306.0449
  14   2.0000     -11.245516      -306.0060
  15   2.0000     -11.244196      -305.9701
  16   2.0000     -11.242275      -305.9178
  17   2.0000     -11.242130      -305.9139
  18   2.0000     -11.241451      -305.8954
  19   2.0000     -11.240458      -305.8684
  20   2.0000     -11.239490      -305.8421
  21   2.0000     -11.228839      -305.5522
  22   2.0000      -1.339188       -36.4412
  23   2.0000      -1.320223       -35.9251
  24   2.0000      -1.275066       -34.6963
  25   2.0000      -1.196931       -32.5701
  26   2.0000      -1.180053       -32.1109
  27   2.0000      -1.159943       -31.5637
  28   2.0000      -1.104849       -30.0645
  29   2.0000      -1.054196       -28.6861
  30   2.0000      -1.034192       -28.1418
  31   2.0000      -1.009038       -27.4573
  32   2.0000      -0.991011       -26.9668
  33   2.0000      -0.955217       -25.9928
  34   2.0000      -0.931763       -25.3545
  35   2.0000      -0.899936       -24.4885
  36   2.0000      -0.853882       -23.2353
  37   2.0000      -0.834481       -22.7074
  38   2.0000      -0.808955       -22.0128
  39   2.0000      -0.805546       -21.9200
  40   2.0000      -0.779562       -21.2130
  41   2.0000      -0.760297       -20.6887
  42   2.0000      -0.733125       -19.9494
  43   2.0000      -0.706705       -19.2304
  44   2.0000      -0.703689       -19.1484
  45   2.0000      -0.695999       -18.9391
  46   2.0000      -0.685374       -18.6500
  47   2.0000      -0.662893       -18.0382
  48   2.0000      -0.652140       -17.7456
  49   2.0000      -0.644168       -17.5287
  50   2.0000      -0.624630       -16.9971
  51   2.0000      -0.612117       -16.6565
  52   2.0000      -0.603997       -16.4356
  53   2.0000      -0.601704       -16.3732
  54   2.0000      -0.596726       -16.2377
  55   2.0000      -0.592938       -16.1347
  56   2.0000      -0.578053       -15.7296
  57   2.0000      -0.572672       -15.5832
  58   2.0000      -0.560299       -15.2465
  59   2.0000      -0.552748       -15.0411
  60   2.0000      -0.545108       -14.8331
  61   2.0000      -0.535770       -14.5790
  62   2.0000      -0.527605       -14.3569
  63   2.0000      -0.507134       -13.7998
  64   2.0000      -0.491784       -13.3821
  65   2.0000      -0.490286       -13.3414
  66   2.0000      -0.483213       -13.1489
  67   2.0000      -0.460216       -12.5231
  68   2.0000      -0.449282       -12.2256
  69   2.0000      -0.439127       -11.9492
  70   2.0000      -0.413835       -11.2610
  71   2.0000      -0.409497       -11.1430
  72   2.0000      -0.387628       -10.5479
  73   2.0000      -0.367558       -10.0018
  74   2.0000      -0.330241        -8.9863
  75   2.0000      -0.285265        -7.7625
  76   2.0000      -0.276520        -7.5245
  77   0.0000       0.073055         1.9879
  78   0.0000       0.114905         3.1267
  79   0.0000       0.126626         3.4457
  80   0.0000       0.157249         4.2790
  81   0.0000       0.170285         4.6337

MULLIKEN ATOMIC CHARGES
-----------------------
   0 O :   -0.459923
   1 C :    0.396285
   2 C :    0.166217
   3 N :   -0.427293
   4 C :    0.328827
   5 N :   -0.441830
   6 C :    0.347462
   7 C :   -0.210706
   8 N :   -0.367281
   9 C :    0.287167
  10 N :   -0.548558
  11 C :    0.354993
  12 C :   -0.192304
  13 C :   -0.030653
  14 C :   -0.031994
  15 C :   -0.007950
  16 C :   -0.041100
  17 C :   -0.020064
  18 C :   -0.026877
  19 C :   -0.027864
  20 C :   -0.041622
  21 C :   -0.012728
  22 H :    0.205262
  23 H :    0.027309
  24 H :    0.045057
  25 H :    0.046531
  26 H :    0.166007
  27 H :    0.054072
  28 H :    0.059117
  29 H :    0.042125
  30 H :    0.082361
  31 H :    0.034496
  32 H :    0.040469
  33 H :    0.032597
  34 H :    0.031936
  35 H :    0.041025
  36 H :    0.042063
  37 H :    0.057367
Sum of atomic charges:    0.0000000

LOEWDIN ATOMIC CHARGES
----------------------
   0 O :   -0.206582
   1 C :    0.105725
   2 C :    0.070331
   3 N :   -0.084025
   4 C :    0.166516
   5 N :   -0.224410
   6 C :    0.020343
   7 C :   -0.113257
   8 N :   -0.184844
   9 C :    0.075233
  10 N :   -0.031252
  11 C :    0.098611
  12 C :   -0.032603
  13 C :   -0.029534
  14 C :   -0.031845
  15 C :   -0.005856
  16 C :   -0.023320
  17 C :   -0.011661
  18 C :   -0.025806
  19 C :   -0.023046
  20 C :   -0.011110
  21 C :   -0.020915
  22 H :    0.089075
  23 H :    0.014437
  24 H :    0.013835
  25 H :    0.025925
  26 H :    0.085944
  27 H :    0.020585
  28 H :    0.018888
  29 H :    0.022413
  30 H :    0.035730
  31 H :    0.025392
  32 H :    0.028045
  33 H :    0.027759
  34 H :    0.027229
  35 H :    0.027514
  36 H :    0.029189
  37 H :    0.031347

  Mayer bond orders larger than 0.100000
B(  0-O ,  1-C ) :   0.9718 B(  0-O , 22-H ) :   0.9653 B(  1-C ,  2-C ) :   1.0187
B(  1-C ,  7-C ) :   0.9660 B(  1-C , 23-H ) :   0.9767 B(  2-C ,  3-N ) :   0.9061
B(  2-C , 24-H ) :   0.9813 B(  2-C , 25-H ) :   0.9742 B(  3-N ,  4-C ) :   1.1605
B(  3-N , 26-H ) :   0.9436 B(  4-C ,  5-N ) :   1.7806 B(  4-C , 27-H ) :   0.9854
B(  5-N ,  6-C ) :   1.1281 B(  6-C ,  7-C ) :   1.5507 B(  6-C , 10-N ) :   1.0832
B(  7-C ,  8-N ) :   1.3214 B(  8-N ,  9-C ) :   1.6575 B(  9-C , 10-N ) :   1.1598
B(  9-C , 28-H ) :   0.9934 B( 10-N , 11-C ) :   0.8450 B( 11-C , 12-C ) :   1.0238
B( 11-C , 29-H ) :   0.9787 B( 11-C , 30-H ) :   0.9628 B( 12-C , 13-C ) :   1.5643
B( 12-C , 21-C ) :   1.2534 B( 13-C , 14-C ) :   1.2794 B( 13-C , 31-H ) :   1.0004
B( 14-C , 15-C ) :   1.5540 B( 14-C , 32-H ) :   1.0002 B( 15-C , 16-C ) :   1.2534
B( 15-C , 33-H ) :   1.0050 B( 16-C , 17-C ) :   1.2617 B( 16-C , 21-C ) :   1.2872
B( 17-C , 18-C ) :   1.5469 B( 17-C , 34-H ) :   1.0052 B( 18-C , 19-C ) :   1.2794
B( 18-C , 35-H ) :   0.9994 B( 19-C , 20-C ) :   1.5568 B( 19-C , 36-H ) :   0.9985
B( 20-C , 21-C ) :   1.2756 B( 20-C , 37-H ) :   0.9903

FINAL SINGLE POINT ENERGY      -945.016255196187

DIPOLE MOMENT
-------------
                                X             Y             Z
Electronic contribution:      0.73964      -1.38652      -0.56792
Nuclear contribution   :     -0.54346       2.24029      -0.25107
                        -----------------------------------------
Total Dipole Moment    :      0.19618       0.85377      -0.81898
                        -----------------------------------------
Magnitude (a.u.)       :      1.19923
Magnitude (Debye)      :      3.04819

Rotational constants in cm-1:     0.018939     0.005766     0.005218
Rotational constants in MHz :   567.773433   172.862555   156.429022

                             ****ORCA TERMINATED NORMALLY****
TOTAL RUN TIME: 0 days 0 hours 0 minutes 23 seconds 546 msec
