                         Program Version 5.0.3 -  RELEASE  -
|  1> !RHF def2-SVP TightSCF PAL16
|  2> *xyz 0 1
|  3> C -3.340497861623494 3.5432637569367857 0.986759177331305
|  4> C -2.507941339607128 2.5264054599344172 0.7268018959154716
|  5> C -2.151792567232988 2.0425529546976713 -0.651355674728238
|  6> C -2.540406381328752 0.5970283707235166 -0.8735453802104358
|  7> C -3.8134395744455656 0.2944934338547473 -1.3801476707452902
|  8> C -4.203962100825309 -1.0309402583517513 -1.5703778661032546
|  9> C -3.3379686704148903 -2.0753287305936707 -1.2365741946385926
| 10> C -2.071842986829775 -1.8038254217916363 -0.7071107282594772
| 11> O -1.1779049545929974 -2.772592604729662 -0.3268348137392241
| 12> C -1.7035654675688958 -4.070580058976971 -0.07806089301918387
| 13> C -1.6683796142114304 -0.4621370454497965 -0.5556762217692641
| 14> O -0.44891881222821306 -0.1256181774473823 -0.014768583291573992
| 15> C 0.6466759433745397 -0.5301480407156556 -0.8466089406789911
| 16> C 1.823522719831504 0.45126942731947656 -0.6626887565222686
| 17> N 2.369503837143963 0.5939796926151653 0.7071928011512103
| 18> C 2.7614576387394583 -0.6782349669831015 1.3312295951271589
| 19> C 3.890506606508329 -1.4428070333495344 0.6461938281469033
| 20> C 3.4129197336115107 1.6315899720819629 0.7301424191701414
| 21> C 3.8694945385459563 2.0197752419817236 2.1344004926455997
| 22> H -3.830047613916983 4.098558918204099 0.19390176116319546
| 23> H -3.5461404845481446 3.8393261397247644 2.0112351875711005
| 24> H -2.0333505836570698 2.0033118782234247 1.5558031735302944
| 25> H -1.0752394780264058 2.175590712841389 -0.8110393160232734
| 26> H -2.6319080593869857 2.665102820994767 -1.4191153983593945
| 27> H -4.509177141883717 1.095465481157986 -1.6235509971782982
| 28> H -5.191181357434287 -1.25211370484562 -1.9698706038235265
| 29> H -3.681903770666505 -3.092146297406133 -1.3988638055271865
| 30> H -0.9158020566583982 -4.663822930035636 0.39746160910288747
| 31> H -2.5550299279073587 -4.035543919373076 0.6103228215822663
| 32> H -1.9729294600312255 -4.56810492487767 -1.0154751968346463
| 33> H 0.3602055086127859 -0.5149763747301747 -1.9083160639083323
| 34> H 0.9562609685622195 -1.5497099882337013 -0.5937537691246029
| 35> H 1.4568458460160052 1.4385537918687479 -0.9761351124484869
| 36> H 2.621484894169768 0.17118505770632253 -1.3618871299991075
| 37> H 1.886171010460386 -1.3347712147678994 1.405826680754073
| 38> H 3.040226852280152 -0.5048539735559828 2.3777024519901144
| 39> H 4.098991618802219 -2.3663253208134387 1.198967216842601
| 40> H 3.6262267189167092 -1.7271824559978624 -0.37744752662128433
| 41> H 4.816982691805055 -0.8605781886734594 0.6191015655445306
| 42> H 3.0123475087298 2.5453713466110526 0.26954390523121674
| 43> H 4.281992233636849 1.336717585344264 0.12976433788965835
| 44> H 3.0162315438627116 2.280592179656982 2.769007520438569
| 45> H 4.526238657906896 2.8954953563961223 2.083842558276712
| 46> H 4.4350431935085295 1.2167120528198099 2.618093253664685
| 47> *
| 48>
| 49>                          ****END OF INPUT****

CARTESIAN COORDINATES (ANGSTROEM)
---------------------------------
  C     -3.340498    3.543264    0.986759
  C     -2.507941    2.526405    0.726802
  C     -2.151793    2.042553   -0.651356
  C     -2.540406    0.597028   -0.873545
  C     -3.813440    0.294493   -1.380148
  C     -4.203962   -1.030940   -1.570378
  C     -3.337969   -2.075329   -1.236574
  C     -2.071843   -1.803825   -0.707111
  O     -1.177905   -2.772593   -0.326835
  C     -1.703565   -4.070580   -0.078061
  C     -1.668380   -0.462137   -0.555676
  O     -0.448919   -0.125618   -0.014769
  C      0.646676   -0.530148   -0.846609
  C      1.823523    0.451269   -0.662689
  N      2.369504    0.593980    0.707193
  C      2.761458   -0.678235    1.331230
  C      3.890507   -1.442807    0.646194
  C      3.412920    1.631590    0.730142
  C      3.869495    2.019775    2.134400
  H     -3.830048    4.098559    0.193902
  H     -3.546140    3.839326    2.011235
  H     -2.033351    2.003312    1.555803
  H     -1.075239    2.175591   -0.811039
  H     -2.631908    2.665103   -1.419115
  H     -4.509177    1.095465   -1.623551
  H     -5.191181   -1.252114   -1.969871
  H     -3.681904   -3.092146   -1.398864
  H     -0.915802   -4.663823    0.397462
  H     -2.555030   -4.035544    0.610323
  H     -1.972929   -4.568105   -1.015475
  H      0.360206   -0.514976   -1.908316
  H      0.956261   -1.549710   -0.593754
  H      1.456846    1.438554   -0.976135
  H      2.621485    0.171185   -1.361887
  H      1.886171   -1.334771    1.405827
  H      3.040227   -0.504854    2.377702
  H      4.098992   -2.366325    1.198967
  H      3.626227   -1.727182   -0.377448
  H      4.816983   -0.860578    0.619102
  H      3.012348    2.545371    0.269544
  H      4.281992    1.336718    0.129764
  H      3.016232    2.280592    2.769008
  H      4.526239    2.895495    2.083843
  H      4.435043    1.216712    2.618093

 Total Charge           Charge          ....    0
 Multiplicity           Mult            ....    1
 Number of Electrons    NEL             ....  144
 Basis Dimension        Dim             ....  391

ORBITAL ENERGIES
----------------

  NO   OCC          E(Eh)            E(eV)
   0   2.0000     -20.578965      -559.9821
   1   2.0000     -20.558335      -559.4207
   2   2.0000     -15.532753      -422.6677
   3   2.0000     -11.301939      -307.5414
   4   2.0000     -11.295319      -307.3613
   5   2.0000     -11.286771      -307.1286
   6   2.0000     -11.278009      -306.8902
   7   2.0000     -11.249253      -306.1077
   8   2.0000     -11.245133      -305.9956
   9   2.0000     -11.241974      -305.9097
  10   2.0000     -11.241420      -305.8946
  11   2.0000     -11.237920      -305.7993
  12   2.0000     -11.236110      -305.7501
  13   2.0000     -11.230580      -305.5996
  14   2.0000     -11.229858      -305.5800
  15   2.0000     -11.229368      -305.5666
  16   2.0000     -11.218954      -305.2833
  17   2.0000     -11.214765      -305.1693
  18   2.0000     -11.214266      -305.1557
  19   2.0000      -1.396432       -37.9988
  20   2.0000      -1.366928       -37.1960
  21   2.0000      -1.198798       -32.6210
  22   2.0000      -1.136212       -30.9179
  23   2.0000      -1.064037       -28.9539
  24   2.0000      -1.019874       -27.7522
  25   2.0000      -1.005667       -27.3656
  26   2.0000      -1.004405       -27.3312
  27   2.0000      -0.988578       -26.9006
  28   2.0000      -0.946312       -25.7505
  29   2.0000      -0.929415       -25.2907
  30   2.0000      -0.908960       -24.7341
  31   2.0000      -0.856315       -23.3015
  32   2.0000      -0.826640       -22.4940
  33   2.0000      -0.803946       -21.8765
  34   2.0000      -0.796370       -21.6703
  35   2.0000      -0.748711       -20.3735
  36   2.0000      -0.745474       -20.2854
  37   2.0000      -0.712546       -19.3894
  38   2.0000      -0.690447       -18.7880
  39   2.0000      -0.683855       -18.6086
  40   2.0000      -0.664290       -18.0762
  41   2.0000      -0.657814       -17.9000
  42   2.0000      -0.647291       -17.6137
  43   2.0000      -0.629914       -17.1408
  44   2.0000      -0.624852       -17.0031
  45   2.0000      -0.618897       -16.8410
  46   2.0000      -0.604666       -16.4538
  47   2.0000      -0.593579       -16.1521
  48   2.0000      -0.590412       -16.0659
  49   2.0000      -0.583467       -15.8769
  50   2.0000      -0.577673       -15.7193
  51   2.0000      -0.566702       -15.4207
  52   2.0000      -0.543995       -14.8028
  53   2.0000      -0.539114       -14.6700
  54   2.0000      -0.535119       -14.5613
  55   2.0000      -0.525082       -14.2882
  56   2.0000      -0.524051       -14.2602
  57   2.0000      -0.517198       -14.0737
  58   2.0000      -0.513041       -13.9606
  59   2.0000      -0.501898       -13.6573
  60   2.0000      -0.492567       -13.4034
  61   2.0000      -0.490891       -13.3578
  62   2.0000      -0.490325       -13.3424
  63   2.0000      -0.478536       -13.0216
  64   2.0000      -0.472196       -12.8491
  65   2.0000      -0.460101       -12.5200
  66   2.0000      -0.457065       -12.4374
  67   2.0000      -0.434177       -11.8146
  68   2.0000      -0.354940        -9.6584
  69   2.0000      -0.340996        -9.2790
  70   2.0000      -0.322428        -8.7737
  71   2.0000      -0.308626        -8.3981
  72   0.0000       0.131720         3.5843
  73   0.0000       0.144296         3.9265
  74   0.0000       0.168391         4.5822
  75   0.0000       0.181009         4.9255
  76   0.0000       0.185448         5.0463

MULLIKEN ATOMIC CHARGES
-----------------------
   0 C :   -0.085642
   1 C :   -0.114779
   2 C :    0.152576
   3 C :   -0.190763
   4 C :   -0.032648
   5 C :   -0.010201
   6 C :   -0.135777
   7 C :    0.300409
   8 O :   -0.568657
   9 C :    0.230871
  10 C :    0.218597
  11 O :   -0.572887
  12 C :    0.291798
  13 C :    0.161991
  14 N :   -0.631257
  15 C :    0.107333
  16 C :   -0.058556
  17 C :    0.120983
  18 C :   -0.030631
  19 H :    0.039632
  20 H :    0.052190
  21 H :    0.063804
  22 H :    0.054849
  23 H :    0.029805
  24 H :    0.028441
  25 H :    0.038249
  26 H :    0.033659
  27 H :    0.048273
  28 H :    0.037483
  29 H :    0.032495
  30 H :    0.027746
  31 H :    0.046210
  32 H :    0.022772
  33 H :    0.003819
  34 H :    0.047277
  35 H :    0.031499
  36 H :    0.028290
  37 H :    0.025876
  38 H :    0.030399
  39 H :    0.024766
  40 H :    0.001421
  41 H :    0.043800
  42 H :    0.027177
  43 H :    0.027306
Sum of atomic charges:   -0.0000000

LOEWDIN ATOMIC CHARGES
----------------------
   0 C :   -0.070445
   1 C :   -0.004546
   2 C :   -0.000633
   3 C :   -0.030310
   4 C :   -0.039033
   5 C :   -0.020956
   6 C :   -0.077781
   7 C :    0.074507
   8 O :   -0.199627
   9 C :    0.135315
  10 C :    0.049487
  11 O :   -0.202981
  12 C :    0.134126
  13 C :    0.057881
  14 N :   -0.200391
  15 C :    0.052470
  16 C :   -0.054266
  17 C :    0.059005
  18 C :   -0.039978
  19 H :    0.014602
  20 H :    0.020574
  21 H :    0.029387
  22 H :    0.030096
  23 H :    0.022676
  24 H :    0.024689
  25 H :    0.027164
  26 H :    0.026683
  27 H :    0.020133
  28 H :    0.011334
  29 H :    0.006363
  30 H :    0.010792
  31 H :    0.006518
  32 H :    0.011817
  33 H :   -0.006567
  34 H :    0.015873
  35 H :    0.011697
  36 H :    0.018516
  37 H :    0.011350
  38 H :    0.013464
  39 H :    0.011746
  40 H :   -0.012247
  41 H :    0.022078
  42 H :    0.018181
  43 H :    0.011236

  Mayer bond orders larger than 0.100000
B(  0-C ,  1-C ) :   2.0039 B(  0-C , 19-H ) :   0.9788 B(  0-C , 20-H ) :   0.9774
B(  1-C ,  2-C ) :   0.9993 B(  1-C , 21-H ) :   0.9765 B(  2-C ,  3-C ) :   0.9900
B(  2-C , 22-H ) :   0.9608 B(  2-C , 23-H ) :   0.9769 B(  3-C ,  4-C ) :   1.3996
B(  3-C , 10-C ) :   1.4559 B(  4-C ,  5-C ) :   1.4433 B(  4-C , 24-H ) :   1.0040
B(  5-C ,  6-C ) :   1.3810 B(  5-C , 25-H ) :   1.0013 B(  6-C ,  7-C ) :   1.3670
B(  6-C , 26-H ) :   1.0075 B(  7-C ,  8-O ) :   0.9871 B(  7-C , 10-C ) :   1.3647
B(  8-O ,  9-C ) :   0.8666 B(  9-C , 27-H ) :   0.9928 B(  9-C , 28-H ) :   0.9840
B(  9-C , 29-H ) :   0.9864 B( 10-C , 11-O ) :   1.0081 B( 11-O , 12-C ) :   0.8415
B( 12-C , 13-C ) :   1.0585 B( 12-C , 30-H ) :   0.9664 B( 12-C , 31-H ) :   0.9659
B( 13-C , 14-N ) :   0.9467 B( 13-C , 32-H ) :   0.9698 B( 13-C , 33-H ) :   0.9667
B( 14-N , 15-C ) :   0.9446 B( 14-N , 17-C ) :   0.9403 B( 15-C , 16-C ) :   1.0183
B( 15-C , 34-H ) :   0.9852 B( 15-C , 35-H ) :   0.9855 B( 16-C , 36-H ) :   0.9838
B( 16-C , 37-H ) :   0.9803 B( 16-C , 38-H ) :   0.9808 B( 17-C , 18-C ) :   1.0511
B( 17-C , 39-H ) :   0.9787 B( 17-C , 40-H ) :   0.9691 B( 18-C , 41-H ) :   0.9807
B( 18-C , 42-H ) :   0.9846 B( 18-C , 43-H ) :   0.9834

FINAL SINGLE POINT ENERGY      -823.937962840428

DIPOLE MOMENT
-------------
                                X             Y             Z
Electronic contribution:    -19.66044      -4.21767      -6.35503
Nuclear contribution   :     19.71010       3.36515       5.81143
                        -----------------------------------------
Total Dipole Moment    :      0.04966      -0.85252      -0.54360
                        -----------------------------------------
Magnitude (a.u.)       :      1.01230
Magnitude (Debye)      :      2.57307

Rotational constants in cm-1:     0.015045     0.007613     0.005463
Rotational constants in MHz :   451.026269   228.235948   163.776315

                             ****ORCA TERMINATED NORMALLY****
TOTAL RUN TIME: 0 days 0 hours 0 minutes 21 seconds 568 msec
