                         Program Version 5.0.3 -  RELEASE  -
|  1> !RHF def2-SVP TightSCF PAL16
|  2> *xyz 0 1
|  3> C 4.244670442572922 0.7275284093481772 1.0772996991692307
|  4> C 3.529128555173742 -0.3915891859266376 0.8638984119572896
|  5> N 2.3689475301700242 -0.16715766329613307 0.17138754154406088
|  6> C 1.1911347778279984 -0.9423094327189244 -0.07367386837644828
|  7> C 0.3042874065119883 0.11666300086658576 -0.8146594884302194
|  8> C -1.133408918163164 0.06884453352049785 -0.34447801139115597
|  9> C -2.013184238201629 -0.8805367828227381 -0.8886831237561008
| 10> C -3.3339447557550903 -0.9641155930161455 -0.4435143792042278
| 11> C -3.7904733050613815 -0.10338823243673419 0.5521496536808028
| 12> C -2.9278972511347336 0.8420450350106979 1.102308589853824
| 13> C -1.6069218723263696 0.9267493936488682 0.65853065214456
| 14> N 0.9624881220085466 1.4755909346323273 -0.633530907811153
| 15> C 2.0961643795795046 1.1397511608692938 -0.1021282743721691
| 16> S 3.4231034492003154 2.1522302477575406 0.4198528700616438
| 17> H 5.188697427553452 0.79341108361065 1.5989115486583632
| 18> H 3.7792410624239476 -1.3940289968196966 1.1825347107016977
| 19> H 0.7411124142070563 -1.2791308732106272 0.8670433876457044
| 20> H 1.3880896943086733 -1.8101106807250997 -0.711267609096568
| 21> H 0.3270558351146166 -0.08406339100630644 -1.8948804872871128
| 22> H -1.6780437512921134 -1.558615946659885 -1.6704606594826892
| 23> H -4.008563582524172 -1.6980737351649788 -0.8765937761160124
| 24> H -4.81951490364653 -0.16489334368985056 0.8960180345378249
| 25> H -3.2829083453888552 1.5192805306291035 1.8747559644348601
| 26> H -0.9492601731592076 1.6759195276000047 1.0957750443160712
| 27> *
| 28>
| 29>                          ****END OF INPUT****

CARTESIAN COORDINATES (ANGSTROEM)
---------------------------------
  C      4.244670    0.727528    1.077300
  C      3.529129   -0.391589    0.863898
  N      2.368948   -0.167158    0.171388
  C      1.191135   -0.942309   -0.073674
  C      0.304287    0.116663   -0.814659
  C     -1.133409    0.068845   -0.344478
  C     -2.013184   -0.880537   -0.888683
  C     -3.333945   -0.964116   -0.443514
  C     -3.790473   -0.103388    0.552150
  C     -2.927897    0.842045    1.102309
  C     -1.606922    0.926749    0.658531
  N      0.962488    1.475591   -0.633531
  C      2.096164    1.139751   -0.102128
  S      3.423103    2.152230    0.419853
  H      5.188697    0.793411    1.598912
  H      3.779241   -1.394029    1.182535
  H      0.741112   -1.279131    0.867043
  H      1.388090   -1.810111   -0.711268
  H      0.327056   -0.084063   -1.894880
  H     -1.678044   -1.558616   -1.670461
  H     -4.008564   -1.698074   -0.876594
  H     -4.819515   -0.164893    0.896018
  H     -3.282908    1.519281    1.874756
  H     -0.949260    1.675920    1.095775

 Total Charge           Charge          ....    0
 Multiplicity           Mult            ....    1
 Number of Electrons    NEL             ....  106
 Basis Dimension        Dim             ....  250

ORBITAL ENERGIES
----------------

  NO   OCC          E(Eh)            E(eV)
   0   2.0000     -91.949811     -2502.0816
   1   2.0000     -15.612394      -424.8348
   2   2.0000     -15.532654      -422.6650
   3   2.0000     -11.342356      -308.6412
   4   2.0000     -11.304433      -307.6092
   5   2.0000     -11.287898      -307.1593
   6   2.0000     -11.274017      -306.7816
   7   2.0000     -11.270079      -306.6745
   8   2.0000     -11.240897      -305.8804
   9   2.0000     -11.237122      -305.7776
  10   2.0000     -11.236034      -305.7480
  11   2.0000     -11.234375      -305.7029
  12   2.0000     -11.232689      -305.6570
  13   2.0000     -11.230367      -305.5938
  14   2.0000      -8.986719      -244.5411
  15   2.0000      -6.674174      -181.6135
  16   2.0000      -6.673189      -181.5867
  17   2.0000      -6.670812      -181.5220
  18   2.0000      -1.348633       -36.6982
  19   2.0000      -1.190687       -32.4002
  20   2.0000      -1.137929       -30.9646
  21   2.0000      -1.107762       -30.1437
  22   2.0000      -1.033673       -28.1277
  23   2.0000      -0.999618       -27.2010
  24   2.0000      -0.980328       -26.6761
  25   2.0000      -0.965922       -26.2841
  26   2.0000      -0.865439       -23.5498
  27   2.0000      -0.827308       -22.5122
  28   2.0000      -0.817098       -22.2344
  29   2.0000      -0.782646       -21.2969
  30   2.0000      -0.745765       -20.2933
  31   2.0000      -0.702066       -19.1042
  32   2.0000      -0.696710       -18.9584
  33   2.0000      -0.678000       -18.4493
  34   2.0000      -0.639747       -17.4084
  35   2.0000      -0.626100       -17.0370
  36   2.0000      -0.615704       -16.7542
  37   2.0000      -0.589980       -16.0542
  38   2.0000      -0.584578       -15.9072
  39   2.0000      -0.580374       -15.7928
  40   2.0000      -0.570401       -15.5214
  41   2.0000      -0.551069       -14.9954
  42   2.0000      -0.525827       -14.3085
  43   2.0000      -0.495280       -13.4773
  44   2.0000      -0.494585       -13.4583
  45   2.0000      -0.492295       -13.3960
  46   2.0000      -0.481323       -13.0975
  47   2.0000      -0.428845       -11.6695
  48   2.0000      -0.425424       -11.5764
  49   2.0000      -0.412937       -11.2366
  50   2.0000      -0.334180        -9.0935
  51   2.0000      -0.327190        -8.9033
  52   2.0000      -0.288521        -7.8511
  53   0.0000       0.131101         3.5674
  54   0.0000       0.135402         3.6845
  55   0.0000       0.145128         3.9491
  56   0.0000       0.168130         4.5751
  57   0.0000       0.179774         4.8919

MULLIKEN ATOMIC CHARGES
-----------------------
   0 C :   -0.181290
   1 C :    0.234201
   2 N :   -0.589972
   3 C :    0.318440
   4 C :    0.076342
   5 C :   -0.133018
   6 C :   -0.032552
   7 C :   -0.032397
   8 C :   -0.041115
   9 C :   -0.032114
  10 C :   -0.013318
  11 N :   -0.468637
  12 C :    0.343304
  13 S :    0.054476
  14 H :    0.087277
  15 H :    0.068729
  16 H :    0.049557
  17 H :    0.045630
  18 H :    0.053092
  19 H :    0.025686
  20 H :    0.037915
  21 H :    0.038350
  22 H :    0.039718
  23 H :    0.051696
Sum of atomic charges:    0.0000000

LOEWDIN ATOMIC CHARGES
----------------------
   0 C :   -0.211116
   1 C :    0.043327
   2 N :   -0.101153
   3 C :    0.087059
   4 C :    0.067600
   5 C :   -0.034145
   6 C :   -0.033415
   7 C :   -0.024176
   8 C :   -0.032387
   9 C :   -0.021368
  10 C :   -0.015199
  11 N :   -0.287801
  12 C :   -0.019962
  13 S :    0.337260
  14 H :    0.029970
  15 H :    0.034475
  16 H :    0.014943
  17 H :    0.017567
  18 H :    0.020108
  19 H :    0.021100
  20 H :    0.025647
  21 H :    0.024909
  22 H :    0.026595
  23 H :    0.030162

  Mayer bond orders larger than 0.100000
B(  0-C ,  1-C ) :   1.8007 B(  0-C , 13-S ) :   1.0232 B(  0-C , 14-H ) :   0.9813
B(  1-C ,  2-N ) :   1.0118 B(  1-C , 15-H ) :   0.9910 B(  2-N ,  3-C ) :   0.8469
B(  2-N , 12-C ) :   1.0545 B(  3-C ,  4-C ) :   0.9979 B(  3-C , 16-H ) :   0.9774
B(  3-C , 17-H ) :   0.9731 B(  4-C ,  5-C ) :   0.9730 B(  4-C , 11-N ) :   1.0050
B(  4-C , 18-H ) :   0.9528 B(  5-C ,  6-C ) :   1.4096 B(  5-C , 10-C ) :   1.4276
B(  6-C ,  7-C ) :   1.4280 B(  6-C , 19-H ) :   1.0042 B(  7-C ,  8-C ) :   1.4159
B(  7-C , 20-H ) :   0.9995 B(  8-C ,  9-C ) :   1.4102 B(  8-C , 21-H ) :   1.0000
B(  9-C , 10-C ) :   1.4195 B(  9-C , 22-H ) :   1.0008 B( 10-C , 23-H ) :   0.9988
B( 11-N , 12-C ) :   1.7692 B( 12-C , 13-S ) :   1.0438

FINAL SINGLE POINT ENERGY      -928.238513796713

DIPOLE MOMENT
-------------
                                X             Y             Z
Electronic contribution:      9.00888       6.42172      -0.29810
Nuclear contribution   :     -8.36289      -7.96410       0.88502
                        -----------------------------------------
Total Dipole Moment    :      0.64600      -1.54238       0.58692
                        -----------------------------------------
Magnitude (a.u.)       :      1.77221
Magnitude (Debye)      :      4.50459

Rotational constants in cm-1:     0.062750     0.010666     0.009967
Rotational constants in MHz :  1881.183032   319.765360   298.796620

                             ****ORCA TERMINATED NORMALLY****
TOTAL RUN TIME: 0 days 0 hours 0 minutes 8 seconds 710 msec
