                         Program Version 5.0.3 -  RELEASE  -
|  1> !RHF def2-SVP TightSCF PAL16
|  2> *xyz 0 1
|  3> O -0.6594367648158913 0.3724934001797157 -2.2150300177056215
|  4> C 0.038053973548283736 0.12543582204344492 -1.2343530789800228
|  5> O -0.2539280427355085 0.4676048963161607 0.04869586438113646
|  6> C -1.480882070583099 1.1788398604353176 0.24191346411490577
|  7> C -2.562021622145801 0.2049582931250768 0.6302824984242299
|  8> C -3.4783080627330007 -0.25836406488307856 -0.32372573747733896
|  9> C -4.466081182975722 -1.177686700370337 0.03260013233529453
| 10> C -4.542880294424734 -1.6473350437898426 1.34252631565009
| 11> C -3.6297672592992365 -1.202083950403402 2.2966760148510565
| 12> C -2.6409031167343184 -0.28309018307017597 1.9422623088110451
| 13> C 1.3338236273030721 -0.6951594611018397 -1.3227428238481638
| 14> O 1.6793286599764166 -0.9716480909750204 -2.6847061194968767
| 15> C 2.5079399247821907 -0.015188623923102029 -0.6501536962440593
| 16> C 3.1998836101624173 1.0288660614545595 -1.2845280879177676
| 17> C 4.261605412153315 1.6708057654284452 -0.645052017551622
| 18> C 4.642211989531522 1.2809346755916748 0.637145212009781
| 19> C 3.9628371272494785 0.2487237558207375 1.2809135490874837
| 20> C 2.9010289274038574 -0.39537506083054336 0.6427972216958573
| 21> H -1.7646910486856455 1.775452707089624 -0.6337155125316498
| 22> H -1.3220096560069081 1.8959149471235737 1.0557680027110743
| 23> H -3.4235306708124096 0.09181239577827974 -1.3532130707538041
| 24> H -5.173862603616474 -1.5295665934159202 -0.7135790694709616
| 25> H -5.312236419807805 -2.36365733445623 1.618635807378911
| 26> H -3.686311855651969 -1.572941250227973 3.316807572655696
| 27> H -1.9288371751928988 0.049653524086088335 2.6944773431636087
| 28> H 1.1335826584685567 -1.6671395691482345 -0.857248462635392
| 29> H 0.8405078066004944 -0.9513869078186742 -3.1842237793469876
| 30> H 2.9192076528385473 1.3388817461727875 -2.289609160806191
| 31> H 4.793784746499863 2.4723152745292327 -1.1506806658382236
| 32> H 5.470551687463711 1.7797197575627266 1.1332473148096511
| 33> H 4.260702083617876 -0.05579173705148862 2.280887061714442
| 34> H 2.380637958622767 -1.1959983112713808 1.1641682324963827
| 35> *
| 36>
| 37>                          ****END OF INPUT****

CARTESIAN COORDINATES (ANGSTROEM)
---------------------------------
  O     -0.659437    0.372493   -2.215030
  C      0.038054    0.125436   -1.234353
  O     -0.253928    0.467605    0.048696
  C     -1.480882    1.178840    0.241913
  C     -2.562022    0.204958    0.630282
  C     -3.478308   -0.258364   -0.323726
  C     -4.466081   -1.177687    0.032600
  C     -4.542880   -1.647335    1.342526
  C     -3.629767   -1.202084    2.296676
  C     -2.640903   -0.283090    1.942262
  C      1.333824   -0.695159   -1.322743
  O      1.679329   -0.971648   -2.684706
  C      2.507940   -0.015189   -0.650154
  C      3.199884    1.028866   -1.284528
  C      4.261605    1.670806   -0.645052
  C      4.642212    1.280935    0.637145
  C      3.962837    0.248724    1.280914
  C      2.901029   -0.395375    0.642797
  H     -1.764691    1.775453   -0.633716
  H     -1.322010    1.895915    1.055768
  H     -3.423531    0.091812   -1.353213
  H     -5.173863   -1.529567   -0.713579
  H     -5.312236   -2.363657    1.618636
  H     -3.686312   -1.572941    3.316808
  H     -1.928837    0.049654    2.694477
  H      1.133583   -1.667140   -0.857248
  H      0.840508   -0.951387   -3.184224
  H      2.919208    1.338882   -2.289609
  H      4.793785    2.472315   -1.150681
  H      5.470552    1.779720    1.133247
  H      4.260702   -0.055792    2.280887
  H      2.380638   -1.195998    1.164168

 Total Charge           Charge          ....    0
 Multiplicity           Mult            ....    1
 Number of Electrons    NEL             ....  128
 Basis Dimension        Dim             ....  322

ORBITAL ENERGIES
----------------

  NO   OCC          E(Eh)            E(eV)
   0   2.0000     -20.615297      -560.9708
   1   2.0000     -20.564855      -559.5982
   2   2.0000     -20.555948      -559.3558
   3   2.0000     -11.406736      -310.3931
   4   2.0000     -11.313498      -307.8559
   5   2.0000     -11.307221      -307.6851
   6   2.0000     -11.250975      -306.1546
   7   2.0000     -11.250211      -306.1338
   8   2.0000     -11.248033      -306.0745
   9   2.0000     -11.246409      -306.0303
  10   2.0000     -11.245674      -306.0104
  11   2.0000     -11.245242      -305.9986
  12   2.0000     -11.244082      -305.9670
  13   2.0000     -11.243890      -305.9618
  14   2.0000     -11.241613      -305.8998
  15   2.0000     -11.241173      -305.8879
  16   2.0000     -11.240241      -305.8625
  17   2.0000     -11.239469      -305.8415
  18   2.0000      -1.455974       -39.6191
  19   2.0000      -1.364387       -37.1268
  20   2.0000      -1.337633       -36.3988
  21   2.0000      -1.152720       -31.3671
  22   2.0000      -1.146298       -31.1924
  23   2.0000      -1.059026       -28.8176
  24   2.0000      -1.034573       -28.1522
  25   2.0000      -1.011332       -27.5197
  26   2.0000      -1.005982       -27.3742
  27   2.0000      -0.971053       -26.4237
  28   2.0000      -0.920791       -25.0560
  29   2.0000      -0.832633       -22.6571
  30   2.0000      -0.826284       -22.4843
  31   2.0000      -0.824727       -22.4420
  32   2.0000      -0.802944       -21.8492
  33   2.0000      -0.775138       -21.0926
  34   2.0000      -0.743733       -20.2380
  35   2.0000      -0.713991       -19.4287
  36   2.0000      -0.706391       -19.2219
  37   2.0000      -0.693219       -18.8634
  38   2.0000      -0.682032       -18.5590
  39   2.0000      -0.656298       -17.8588
  40   2.0000      -0.649635       -17.6775
  41   2.0000      -0.636499       -17.3200
  42   2.0000      -0.625916       -17.0320
  43   2.0000      -0.614876       -16.7316
  44   2.0000      -0.605491       -16.4763
  45   2.0000      -0.594786       -16.1849
  46   2.0000      -0.591668       -16.1001
  47   2.0000      -0.586993       -15.9729
  48   2.0000      -0.565953       -15.4004
  49   2.0000      -0.540466       -14.7068
  50   2.0000      -0.533192       -14.5089
  51   2.0000      -0.516156       -14.0453
  52   2.0000      -0.511622       -13.9219
  53   2.0000      -0.507445       -13.8083
  54   2.0000      -0.505257       -13.7487
  55   2.0000      -0.498026       -13.5520
  56   2.0000      -0.497314       -13.5326
  57   2.0000      -0.474584       -12.9141
  58   2.0000      -0.465978       -12.6799
  59   2.0000      -0.456888       -12.4325
  60   2.0000      -0.344781        -9.3820
  61   2.0000      -0.343834        -9.3562
  62   2.0000      -0.339404        -9.2356
  63   2.0000      -0.335912        -9.1406
  64   0.0000       0.116371         3.1666
  65   0.0000       0.121207         3.2982
  66   0.0000       0.124498         3.3878
  67   0.0000       0.125738         3.4215
  68   0.0000       0.160346         4.3632

MULLIKEN ATOMIC CHARGES
-----------------------
   0 O :   -0.432546
   1 C :    0.509169
   2 O :   -0.538383
   3 C :    0.401048
   4 C :   -0.228613
   5 C :   -0.014570
   6 C :   -0.039177
   7 C :   -0.032047
   8 C :   -0.039654
   9 C :   -0.009711
  10 C :    0.329804
  11 O :   -0.439227
  12 C :   -0.182226
  13 C :    0.007429
  14 C :   -0.039423
  15 C :   -0.031948
  16 C :   -0.042283
  17 C :   -0.001571
  18 H :    0.065302
  19 H :    0.046872
  20 H :    0.055259
  21 H :    0.044520
  22 H :    0.044436
  23 H :    0.043550
  24 H :    0.038152
  25 H :    0.060003
  26 H :    0.213839
  27 H :    0.051002
  28 H :    0.043207
  29 H :    0.042074
  30 H :    0.040869
  31 H :    0.034847
Sum of atomic charges:    0.0000000

LOEWDIN ATOMIC CHARGES
----------------------
   0 O :   -0.280041
   1 C :    0.227213
   2 O :   -0.176762
   3 C :    0.151708
   4 C :   -0.060596
   5 C :   -0.013950
   6 C :   -0.024322
   7 C :   -0.020444
   8 C :   -0.025111
   9 C :   -0.014226
  10 C :    0.103165
  11 O :   -0.183626
  12 C :   -0.043615
  13 C :   -0.004433
  14 C :   -0.024254
  15 C :   -0.021930
  16 C :   -0.026342
  17 C :   -0.013157
  18 H :    0.025640
  19 H :    0.023809
  20 H :    0.032707
  21 H :    0.028401
  22 H :    0.027742
  23 H :    0.027810
  24 H :    0.027405
  25 H :    0.030090
  26 H :    0.087945
  27 H :    0.031623
  28 H :    0.028013
  29 H :    0.026742
  30 H :    0.027049
  31 H :    0.025747

  Mayer bond orders larger than 0.100000
B(  0-O ,  1-C ) :   1.9360 B(  1-C ,  2-O ) :   1.0839 B(  1-C , 10-C ) :   0.9444
B(  2-O ,  3-C ) :   0.8066 B(  3-C ,  4-C ) :   1.0123 B(  3-C , 18-H ) :   0.9754
B(  3-C , 19-H ) :   0.9793 B(  4-C ,  5-C ) :   1.4308 B(  4-C ,  9-C ) :   1.4066
B(  5-C ,  6-C ) :   1.4168 B(  5-C , 20-H ) :   0.9997 B(  6-C ,  7-C ) :   1.4170
B(  6-C , 21-H ) :   1.0003 B(  7-C ,  8-C ) :   1.4088 B(  7-C , 22-H ) :   0.9998
B(  8-C ,  9-C ) :   1.4329 B(  8-C , 23-H ) :   1.0001 B(  9-C , 24-H ) :   1.0020
B( 10-C , 11-O ) :   1.0035 B( 10-C , 12-C ) :   0.9898 B( 10-C , 25-H ) :   0.9578
B( 11-O , 26-H ) :   0.9471 B( 12-C , 13-C ) :   1.4019 B( 12-C , 17-C ) :   1.4248
B( 13-C , 14-C ) :   1.4287 B( 13-C , 27-H ) :   0.9991 B( 14-C , 15-C ) :   1.4076
B( 14-C , 28-H ) :   1.0015 B( 15-C , 16-C ) :   1.4183 B( 15-C , 29-H ) :   0.9994
B( 16-C , 17-C ) :   1.4273 B( 16-C , 30-H ) :   0.9993 B( 17-C , 31-H ) :   0.9982

FINAL SINGLE POINT ENERGY      -800.172945879336

DIPOLE MOMENT
-------------
                                X             Y             Z
Electronic contribution:      0.88739      -0.01586      -3.51788
Nuclear contribution   :     -1.40341       0.12996       4.52898
                        -----------------------------------------
Total Dipole Moment    :     -0.51602       0.11411       1.01111
                        -----------------------------------------
Magnitude (a.u.)       :      1.14089
Magnitude (Debye)      :      2.89992

Rotational constants in cm-1:     0.029989     0.006837     0.006137
Rotational constants in MHz :   899.057877   204.979163   183.993585

                             ****ORCA TERMINATED NORMALLY****
TOTAL RUN TIME: 0 days 0 hours 0 minutes 13 seconds 362 msec
