                         Program Version 5.0.3 -  RELEASE  -
|  1> !RHF def2-SVP TightSCF PAL16
|  2> *xyz 0 1
|  3> C -4.537368434447543 -2.5375228572347996 1.4324728312056456
|  4> C -4.229148281525482 -1.6241000050631642 0.2451702029287474
|  5> C -5.526952296032217 -1.181780933700392 -0.4222082207783289
|  6> O -3.4139039886994564 -2.3288869349604666 -0.7354240492300351
|  7> C -2.1321670527220675 -1.8721813981498783 -0.3789556277458925
|  8> C -0.852702125754647 -2.0103450602590938 -1.1812056345879631
|  9> C -0.11536571514941649 -0.6935584279789808 -0.8256195949414916
| 10> C 1.4147537333288747 -0.640936792608444 -0.7583834594231894
| 11> C 2.0661914273765065 -1.4909567776703518 0.33682302622370464
| 12> C 3.587719245622205 -1.3635985510435966 0.34045264518018487
| 13> F 4.058094298785574 -2.0808174272886393 1.4012777090509856
| 14> C 4.009597679531911 0.08245510730198262 0.42314190480623487
| 15> C 4.808005351412984 0.5217416216031509 1.4131788244920136
| 16> C 5.183521549470648 1.9451768221202588 1.5405044187019
| 17> O 5.914961136006283 2.3359399609315976 2.4413879885307264
| 18> C 4.640878369804272 2.884213923227003 0.5378391877855117
| 19> C 3.846375577736674 2.452853440574674 -0.45070360918323416
| 20> C 3.4272463415675354 1.0004007099135968 -0.6541976828958158
| 21> C 4.051866429316595 0.6011533358244339 -2.0179398140927227
| 22> C 1.8534839978062452 0.8624001264926892 -0.7125485796455557
| 23> F 1.457287785845649 1.4115345186132648 -1.9191731397742173
| 24> C 1.0734466405003689 1.6867584740692003 0.3690846342389289
| 25> O 1.5829887024981333 1.4600355510341094 1.6761339333759837
| 26> C -0.47101524966423347 1.4797486861460756 0.3386836573683604
| 27> C -0.9055097417296795 -0.004787652775868688 0.3487422633143397
| 28> C -0.7003500359336056 -0.5724823003362635 1.7780434287639548
| 29> C -2.3479933440269694 -0.38453219698075214 -0.1264699407316944
| 30> C -2.8147073460795533 0.4555214976118856 -1.3449756946843914
| 31> O -2.6204716224366407 0.13026445513723664 -2.519547741810224
| 32> C -3.5416528749440395 1.7641861570594946 -1.032513783816806
| 33> O -3.40638256826714 2.6897443886939016 -2.101690277380097
| 34> O -3.4754030428695644 -0.4640279502747582 0.749851592086402
| 35> H -3.622461163496495 -2.8300961660188952 1.9584855027366193
| 36> H -5.172883050781892 -2.028478233675962 2.164969883534842
| 37> H -5.031039930593689 -3.4584019462058895 1.1051501860872206
| 38> H -5.332411243781738 -0.6350994385041207 -1.3494776290778325
| 39> H -6.10792596676878 -0.5261308510500616 0.23420131047678597
| 40> H -6.1396943166027995 -2.046174981477349 -0.7004666857101274
| 41> H -1.926839782563626 -2.4208738568965313 0.5490331736528135
| 42> H -1.044853164766343 -2.0989141665501574 -2.2551678959122987
| 43> H -0.28953910846585523 -2.8957149969818987 -0.8709736785362755
| 44> H -0.3154812612906681 -0.07764229825028893 -1.7175074693854593
| 45> H 1.7578635232295436 -1.0501431523252223 -1.7188366107515056
| 46> H 1.8004557475575784 -2.546565098506777 0.20762930766186444
| 47> H 1.7147936506684265 -1.220839622342909 1.3325663505555154
| 48> H 4.009878131526683 -1.828247530295299 -0.5560811545256664
| 49> H 5.201149224638654 -0.13524275728995705 2.1816975371958356
| 50> H 4.924162449134281 3.923769942912396 0.6488018478918071
| 51> H 3.4737727588044534 3.178562194169091 -1.1724218679753076
| 52> H 5.147711754759405 0.6600737334393668 -1.9872694175033505
| 53> H 3.7960550309241436 -0.4179290550708834 -2.322594604412873
| 54> H 3.7153911162567947 1.2662617518307944 -2.8229501817750973
| 55> H 1.2343395860538438 2.7512053528554663 0.15631542726405573
| 56> H 1.2255957051875304 2.1513223868754987 2.262333200593792
| 57> H -0.9344868506159401 2.0035560522877214 1.183635586121201
| 58> H -0.8264494248566986 1.9678757841727696 -0.5751936911083122
| 59> H -1.566707304702716 -0.34592067112579855 2.410105877373947
| 60> H 0.15024203882825535 -0.14777278832672136 2.306801902303776
| 61> H -0.5468606545076421 -1.6546305014173595 1.7946000729451292
| 62> H -3.134896016662772 2.226097175313292 -0.13097180548622592
| 63> H -4.603990577003421 1.5627665713267431 -0.8791144276088185
| 64> H -3.440215446437727 2.159713657100896 -2.9238056795399587
| 65> *
| 66>
| 67>                          ****END OF INPUT****

CARTESIAN COORDINATES (ANGSTROEM)
---------------------------------
  C     -4.537368   -2.537523    1.432473
  C     -4.229148   -1.624100    0.245170
  C     -5.526952   -1.181781   -0.422208
  O     -3.413904   -2.328887   -0.735424
  C     -2.132167   -1.872181   -0.378956
  C     -0.852702   -2.010345   -1.181206
  C     -0.115366   -0.693558   -0.825620
  C      1.414754   -0.640937   -0.758383
  C      2.066191   -1.490957    0.336823
  C      3.587719   -1.363599    0.340453
  F      4.058094   -2.080817    1.401278
  C      4.009598    0.082455    0.423142
  C      4.808005    0.521742    1.413179
  C      5.183522    1.945177    1.540504
  O      5.914961    2.335940    2.441388
  C      4.640878    2.884214    0.537839
  C      3.846376    2.452853   -0.450704
  C      3.427246    1.000401   -0.654198
  C      4.051866    0.601153   -2.017940
  C      1.853484    0.862400   -0.712549
  F      1.457288    1.411535   -1.919173
  C      1.073447    1.686758    0.369085
  O      1.582989    1.460036    1.676134
  C     -0.471015    1.479749    0.338684
  C     -0.905510   -0.004788    0.348742
  C     -0.700350   -0.572482    1.778043
  C     -2.347993   -0.384532   -0.126470
  C     -2.814707    0.455521   -1.344976
  O     -2.620472    0.130264   -2.519548
  C     -3.541653    1.764186   -1.032514
  O     -3.406383    2.689744   -2.101690
  O     -3.475403   -0.464028    0.749852
  H     -3.622461   -2.830096    1.958486
  H     -5.172883   -2.028478    2.164970
  H     -5.031040   -3.458402    1.105150
  H     -5.332411   -0.635099   -1.349478
  H     -6.107926   -0.526131    0.234201
  H     -6.139694   -2.046175   -0.700467
  H     -1.926840   -2.420874    0.549033
  H     -1.044853   -2.098914   -2.255168
  H     -0.289539   -2.895715   -0.870974
  H     -0.315481   -0.077642   -1.717507
  H      1.757864   -1.050143   -1.718837
  H      1.800456   -2.546565    0.207629
  H      1.714794   -1.220840    1.332566
  H      4.009878   -1.828248   -0.556081
  H      5.201149   -0.135243    2.181698
  H      4.924162    3.923770    0.648802
  H      3.473773    3.178562   -1.172422
  H      5.147712    0.660074   -1.987269
  H      3.796055   -0.417929   -2.322595
  H      3.715391    1.266262   -2.822950
  H      1.234340    2.751205    0.156315
  H      1.225596    2.151322    2.262333
  H     -0.934487    2.003556    1.183636
  H     -0.826449    1.967876   -0.575194
  H     -1.566707   -0.345921    2.410106
  H      0.150242   -0.147773    2.306802
  H     -0.546861   -1.654631    1.794600
  H     -3.134896    2.226097   -0.130972
  H     -4.603991    1.562767   -0.879114
  H     -3.440215    2.159714   -2.923806

 Total Charge           Charge          ....    0
 Multiplicity           Mult            ....    1
 Number of Electrons    NEL             ....  240
 Basis Dimension        Dim             ....  598

ORBITAL ENERGIES
----------------

  NO   OCC          E(Eh)            E(eV)
   0   2.0000     -26.300647      -715.6770
   1   2.0000     -26.283089      -715.1992
   2   2.0000     -20.587735      -560.2208
   3   2.0000     -20.578352      -559.9654
   4   2.0000     -20.574355      -559.8567
   5   2.0000     -20.574091      -559.8495
   6   2.0000     -20.557378      -559.3947
   7   2.0000     -20.528403      -558.6062
   8   2.0000     -11.363746      -309.2232
   9   2.0000     -11.359745      -309.1144
  10   2.0000     -11.357230      -309.0459
  11   2.0000     -11.332893      -308.3837
  12   2.0000     -11.326268      -308.2034
  13   2.0000     -11.318982      -308.0052
  14   2.0000     -11.318033      -307.9793
  15   2.0000     -11.302373      -307.5532
  16   2.0000     -11.296201      -307.3852
  17   2.0000     -11.291259      -307.2508
  18   2.0000     -11.277519      -306.8769
  19   2.0000     -11.275196      -306.8137
  20   2.0000     -11.272902      -306.7513
  21   2.0000     -11.267129      -306.5942
  22   2.0000     -11.256518      -306.3054
  23   2.0000     -11.253740      -306.2298
  24   2.0000     -11.253048      -306.2110
  25   2.0000     -11.248317      -306.0823
  26   2.0000     -11.246588      -306.0352
  27   2.0000     -11.243480      -305.9507
  28   2.0000     -11.241124      -305.8865
  29   2.0000     -11.239976      -305.8553
  30   2.0000     -11.238312      -305.8100
  31   2.0000     -11.232899      -305.6627
  32   2.0000      -1.601167       -43.5700
  33   2.0000      -1.587212       -43.1902
  34   2.0000      -1.442417       -39.2502
  35   2.0000      -1.392758       -37.8989
  36   2.0000      -1.372128       -37.3375
  37   2.0000      -1.354339       -36.8534
  38   2.0000      -1.339111       -36.4391
  39   2.0000      -1.337794       -36.4032
  40   2.0000      -1.181359       -32.1464
  41   2.0000      -1.164011       -31.6744
  42   2.0000      -1.103216       -30.0200
  43   2.0000      -1.075296       -29.2603
  44   2.0000      -1.054686       -28.6995
  45   2.0000      -1.049237       -28.5512
  46   2.0000      -1.029621       -28.0174
  47   2.0000      -1.010023       -27.4841
  48   2.0000      -0.997818       -27.1520
  49   2.0000      -0.975843       -26.5540
  50   2.0000      -0.953581       -25.9483
  51   2.0000      -0.950093       -25.8533
  52   2.0000      -0.929081       -25.2816
  53   2.0000      -0.911768       -24.8105
  54   2.0000      -0.876820       -23.8595
  55   2.0000      -0.859301       -23.3828
  56   2.0000      -0.839176       -22.8351
  57   2.0000      -0.829374       -22.5684
  58   2.0000      -0.818233       -22.2653
  59   2.0000      -0.799318       -21.7505
  60   2.0000      -0.788774       -21.4636
  61   2.0000      -0.769820       -20.9479
  62   2.0000      -0.758986       -20.6531
  63   2.0000      -0.744510       -20.2591
  64   2.0000      -0.737704       -20.0739
  65   2.0000      -0.730015       -19.8647
  66   2.0000      -0.713192       -19.4069
  67   2.0000      -0.711185       -19.3523
  68   2.0000      -0.708321       -19.2744
  69   2.0000      -0.696686       -18.9578
  70   2.0000      -0.687238       -18.7007
  71   2.0000      -0.679664       -18.4946
  72   2.0000      -0.678784       -18.4706
  73   2.0000      -0.670205       -18.2372
  74   2.0000      -0.662716       -18.0334
  75   2.0000      -0.659386       -17.9428
  76   2.0000      -0.656362       -17.8605
  77   2.0000      -0.652517       -17.7559
  78   2.0000      -0.643074       -17.4989
  79   2.0000      -0.633934       -17.2502
  80   2.0000      -0.627683       -17.0801
  81   2.0000      -0.615939       -16.7606
  82   2.0000      -0.610709       -16.6182
  83   2.0000      -0.603523       -16.4227
  84   2.0000      -0.600161       -16.3312
  85   2.0000      -0.595541       -16.2055
  86   2.0000      -0.591712       -16.1013
  87   2.0000      -0.585246       -15.9254
  88   2.0000      -0.577181       -15.7059
  89   2.0000      -0.573731       -15.6120
  90   2.0000      -0.570285       -15.5183
  91   2.0000      -0.564076       -15.3493
  92   2.0000      -0.561826       -15.2881
  93   2.0000      -0.558333       -15.1930
  94   2.0000      -0.555496       -15.1158
  95   2.0000      -0.549603       -14.9555
  96   2.0000      -0.545625       -14.8472
  97   2.0000      -0.544447       -14.8152
  98   2.0000      -0.537333       -14.6216
  99   2.0000      -0.535538       -14.5727
 100   2.0000      -0.531887       -14.4734
 101   2.0000      -0.530028       -14.4228
 102   2.0000      -0.527156       -14.3447
 103   2.0000      -0.515314       -14.0224
 104   2.0000      -0.511701       -13.9241
 105   2.0000      -0.508118       -13.8266
 106   2.0000      -0.506445       -13.7811
 107   2.0000      -0.496477       -13.5098
 108   2.0000      -0.492324       -13.3968
 109   2.0000      -0.480182       -13.0664
 110   2.0000      -0.474141       -12.9020
 111   2.0000      -0.469598       -12.7784
 112   2.0000      -0.460523       -12.5315
 113   2.0000      -0.443478       -12.0676
 114   2.0000      -0.436512       -11.8781
 115   2.0000      -0.423836       -11.5332
 116   2.0000      -0.413668       -11.2565
 117   2.0000      -0.412025       -11.2118
 118   2.0000      -0.384257       -10.4562
 119   2.0000      -0.367773       -10.0076
 120   0.0000       0.078019         2.1230
 121   0.0000       0.116991         3.1835
 122   0.0000       0.129534         3.5248
 123   0.0000       0.151575         4.1246
 124   0.0000       0.161731         4.4009

MULLIKEN ATOMIC CHARGES
-----------------------
   0 C :    0.077441
   1 C :    0.234298
   2 C :    0.050655
   3 O :   -0.570948
   4 C :    0.241352
   5 C :    0.272394
   6 C :   -0.198945
   7 C :   -0.098049
   8 C :   -0.008257
   9 C :    0.527140
  10 F :   -0.371895
  11 C :   -0.119423
  12 C :   -0.066270
  13 C :    0.311736
  14 O :   -0.391271
  15 C :   -0.090641
  16 C :    0.060247
  17 C :   -0.369910
  18 C :    0.091612
  19 C :    0.244562
  20 F :   -0.390161
  21 C :    0.303599
  22 O :   -0.446374
  23 C :    0.099947
  24 C :   -0.489613
  25 C :    0.078639
  26 C :    0.072699
  27 C :    0.220243
  28 O :   -0.396290
  29 C :    0.365873
  30 O :   -0.471497
  31 O :   -0.607773
  32 H :    0.027871
  33 H :    0.040718
  34 H :    0.045879
  35 H :    0.044579
  36 H :    0.044593
  37 H :    0.048316
  38 H :    0.045971
  39 H :    0.062399
  40 H :    0.022180
  41 H :    0.090925
  42 H :    0.048131
  43 H :    0.050263
  44 H :    0.068536
  45 H :    0.036675
  46 H :    0.061520
  47 H :    0.052540
  48 H :    0.065552
  49 H :    0.056523
  50 H :    0.038652
  51 H :    0.062024
  52 H :    0.041315
  53 H :    0.213033
  54 H :    0.033907
  55 H :    0.065203
  56 H :    0.053298
  57 H :    0.065641
  58 H :    0.030860
  59 H :    0.049090
  60 H :    0.052307
  61 H :    0.216378
Sum of atomic charges:    0.0000000

LOEWDIN ATOMIC CHARGES
----------------------
   0 C :   -0.029323
   1 C :    0.195229
   2 C :   -0.032676
   3 O :   -0.236535
   4 C :    0.099450
   5 C :    0.002077
   6 C :   -0.014323
   7 C :   -0.021191
   8 C :   -0.018658
   9 C :    0.169032
  10 F :   -0.168787
  11 C :    0.000891
  12 C :   -0.049989
  13 C :    0.139695
  14 O :   -0.249457
  15 C :   -0.059568
  16 C :    0.035073
  17 C :   -0.047635
  18 C :   -0.006778
  19 C :    0.143673
  20 F :   -0.172435
  21 C :    0.106847
  22 O :   -0.177876
  23 C :   -0.016362
  24 C :   -0.038962
  25 C :   -0.028917
  26 C :    0.037115
  27 C :    0.159366
  28 O :   -0.234651
  29 C :    0.107326
  30 O :   -0.196183
  31 O :   -0.252262
  32 H :    0.020363
  33 H :    0.026542
  34 H :    0.027790
  35 H :    0.021647
  36 H :    0.025962
  37 H :    0.031362
  38 H :    0.012247
  39 H :    0.032287
  40 H :    0.011669
  41 H :    0.030499
  42 H :    0.025759
  43 H :    0.023681
  44 H :    0.029943
  45 H :    0.014240
  46 H :    0.041479
  47 H :    0.036576
  48 H :    0.032968
  49 H :    0.029117
  50 H :    0.013691
  51 H :    0.027913
  52 H :    0.012577
  53 H :    0.095665
  54 H :    0.016793
  55 H :    0.023925
  56 H :    0.024783
  57 H :    0.018975
  58 H :    0.011875
  59 H :    0.023216
  60 H :    0.023400
  61 H :    0.089852

  Mayer bond orders larger than 0.100000
B(  0-C ,  1-C ) :   1.0418 B(  0-C , 32-H ) :   0.9707 B(  0-C , 33-H ) :   0.9764
B(  0-C , 34-H ) :   0.9749 B(  1-C ,  2-C ) :   1.0428 B(  1-C ,  3-O ) :   0.8765
B(  1-C , 31-O ) :   0.8160 B(  2-C , 35-H ) :   0.9694 B(  2-C , 36-H ) :   0.9731
B(  2-C , 37-H ) :   0.9753 B(  3-O ,  4-C ) :   0.8669 B(  4-C ,  5-C ) :   1.0271
B(  4-C , 26-C ) :   1.0251 B(  4-C , 38-H ) :   0.9819 B(  5-C ,  6-C ) :   1.0056
B(  5-C , 39-H ) :   0.9428 B(  5-C , 40-H ) :   0.9689 B(  6-C ,  7-C ) :   1.0389
B(  6-C , 24-C ) :   0.9174 B(  6-C , 41-H ) :   0.9396 B(  7-C ,  8-C ) :   0.9625
B(  7-C , 19-C ) :   0.9999 B(  7-C , 42-H ) :   0.9499 B(  8-C ,  9-C ) :   1.0435
B(  8-C , 43-H ) :   0.9642 B(  8-C , 44-H ) :   0.9492 B(  9-C , 10-F ) :   0.8597
B(  9-C , 11-C ) :   0.9695 B(  9-C , 45-H ) :   0.9817 B( 11-C , 12-C ) :   1.8753
B( 11-C , 17-C ) :   0.9180 B( 12-C , 13-C ) :   1.0084 B( 12-C , 46-H ) :   1.0053
B( 13-C , 14-O ) :   1.9462 B( 13-C , 15-C ) :   1.0017 B( 15-C , 16-C ) :   1.8551
B( 15-C , 47-H ) :   1.0056 B( 16-C , 17-C ) :   0.9703 B( 16-C , 48-H ) :   0.9889
B( 17-C , 18-C ) :   0.9998 B( 17-C , 19-C ) :   0.9468 B( 18-C , 49-H ) :   0.9825
B( 18-C , 50-H ) :   0.9821 B( 18-C , 51-H ) :   0.9798 B( 19-C , 20-F ) :   0.7842
B( 19-C , 21-C ) :   0.9551 B( 21-C , 22-O ) :   0.9254 B( 21-C , 23-C ) :   1.0419
B( 21-C , 52-H ) :   0.9559 B( 22-O , 53-H ) :   0.9559 B( 23-C , 24-C ) :   0.9997
B( 23-C , 54-H ) :   0.9597 B( 23-C , 55-H ) :   0.9533 B( 24-C , 25-C ) :   0.9726
B( 24-C , 26-C ) :   0.9505 B( 25-C , 56-H ) :   0.9748 B( 25-C , 57-H ) :   0.9769
B( 25-C , 58-H ) :   0.9810 B( 26-C , 27-C ) :   0.8553 B( 26-C , 31-O ) :   0.8749
B( 27-C , 28-O ) :   1.9967 B( 27-C , 29-C ) :   0.9549 B( 29-C , 30-O ) :   0.9383
B( 29-C , 59-H ) :   0.9678 B( 29-C , 60-H ) :   0.9580 B( 30-O , 61-H ) :   0.9499

FINAL SINGLE POINT ENERGY     -1573.066503010937

DIPOLE MOMENT
-------------
                                X             Y             Z
Electronic contribution:     23.32554       6.55890      -1.08235
Nuclear contribution   :    -24.95208      -7.06959       0.75669
                        -----------------------------------------
Total Dipole Moment    :     -1.62654      -0.51070      -0.32565
                        -----------------------------------------
Magnitude (a.u.)       :      1.73566
Magnitude (Debye)      :      4.41168

Rotational constants in cm-1:     0.010015     0.002858     0.002629
Rotational constants in MHz :   300.234573    85.690153    78.803514

                             ****ORCA TERMINATED NORMALLY****
TOTAL RUN TIME: 0 days 0 hours 1 minutes 30 seconds 189 msec
