                         Program Version 5.0.3 -  RELEASE  -
|  1> !RHF def2-SVP TightSCF PAL16
|  2> *xyz 0 1
|  3> C -5.52761178628417 0.5115948248988714 -0.27865489231339313
|  4> O -4.209161424679645 1.0368651836720495 -0.2090337638511975
|  5> C -3.203199859462292 0.1442225644287996 0.005273417897842604
|  6> C -3.3439615606347655 -1.241260678919682 0.24138423585080238
|  7> C -2.2263933646767646 -2.0863346219347427 0.5069107086103499
|  8> C -0.9375427844245376 -1.5693022685295925 0.5052486920649146
|  9> C -0.8526904997211718 -0.22723757651435716 0.2179511422756752
| 10> C -1.9200870624691913 0.6407159322427515 0.02435854081830529
| 11> O -1.476668013279925 1.9638220023000679 -0.07074561476962993
| 12> C -0.18857130210211928 1.8460288965357883 0.5961448291908564
| 13> C 0.868036270055799 2.9494231768438555 0.4727374652648596
| 14> O 1.0263593240423894 3.3981187980370984 -0.8653549799228586
| 15> C 2.2195401428728725 2.4075042584211244 0.9562679371834315
| 16> C 2.4749751781932345 1.1096252948894365 1.2649872324904876
| 17> C 1.4189103741261937 0.02048780910096866 1.1286300593003866
| 18> C 1.6922141458535103 -1.453845001239814 0.7082100730675681
| 19> C 0.3433491057283045 -2.3062381271431707 0.8579820139322982
| 20> N 2.2845760051853468 -1.5955467593598762 -0.7081299455458799
| 21> C 3.6695197577059204 -1.015605079795753 -0.8038710589815439
| 22> O 2.41288547906215 -2.9408983358159118 -1.0056774164764208
| 23> C 1.3740208334748412 -0.9498789798145337 -1.7336495238966354
| 24> C 0.9189534572247603 0.45505821264742824 -1.341218877312484
| 25> C 0.4038163945806087 0.524577915650138 0.1219464722649769
| 26> H -5.62370126136002 -0.21112922391875638 -1.095805638927933
| 27> H -6.208355092812805 1.342476909769985 -0.4876322085900416
| 28> H -5.826266652549619 0.06928414770779324 0.6774651218886067
| 29> H -4.325678128836389 -1.7072199792686096 0.25290873937018743
| 30> H -2.39456829337534 -3.1406099251086275 0.7171775883890298
| 31> H -0.4276519796847102 1.8003961041601857 1.6759376877115248
| 32> H 0.5743355776227751 3.8153570831908032 1.0753543830107464
| 33> H 0.12599278339564693 3.5480631761959436 -1.2108914970010678
| 34> H 3.009893238650297 3.147915006121857 1.0614314525456312
| 35> H 3.452617478422429 0.8308752021903879 1.6520650211496533
| 36> H 0.9777840496358712 -0.04647390056463164 2.136554598758661
| 37> H 2.450903012951392 -1.9057366282712778 1.3600809559478821
| 38> H 0.26108312792546967 -2.5888804527329046 1.9156745363145011
| 39> H 0.39197470348833363 -3.23192930021178 0.27621901187389647
| 40> H 4.093761600299939 -1.3437024988930373 -1.7581997446399074
| 41> H 3.624165638131698 0.07057353627116002 -0.7788505537823572
| 42> H 4.2579443631778515 -1.4167757528997178 0.02528800709780786
| 43> H 1.9258321669430039 -0.9394190579328863 -2.680900347533279
| 44> H 0.5238766346585298 -1.628474708748754 -1.8632760987558674
| 45> H 0.14851150035327745 0.7829666631341374 -2.051115827157452
| 46> H 1.766276722600996 1.1305461592146637 -1.4911819348079702
| 47> *
| 48>
| 49>                          ****END OF INPUT****

CARTESIAN COORDINATES (ANGSTROEM)
---------------------------------
  C     -5.527612    0.511595   -0.278655
  O     -4.209161    1.036865   -0.209034
  C     -3.203200    0.144223    0.005273
  C     -3.343962   -1.241261    0.241384
  C     -2.226393   -2.086335    0.506911
  C     -0.937543   -1.569302    0.505249
  C     -0.852690   -0.227238    0.217951
  C     -1.920087    0.640716    0.024359
  O     -1.476668    1.963822   -0.070746
  C     -0.188571    1.846029    0.596145
  C      0.868036    2.949423    0.472737
  O      1.026359    3.398119   -0.865355
  C      2.219540    2.407504    0.956268
  C      2.474975    1.109625    1.264987
  C      1.418910    0.020488    1.128630
  C      1.692214   -1.453845    0.708210
  C      0.343349   -2.306238    0.857982
  N      2.284576   -1.595547   -0.708130
  C      3.669520   -1.015605   -0.803871
  O      2.412885   -2.940898   -1.005677
  C      1.374021   -0.949879   -1.733650
  C      0.918953    0.455058   -1.341219
  C      0.403816    0.524578    0.121946
  H     -5.623701   -0.211129   -1.095806
  H     -6.208355    1.342477   -0.487632
  H     -5.826267    0.069284    0.677465
  H     -4.325678   -1.707220    0.252909
  H     -2.394568   -3.140610    0.717178
  H     -0.427652    1.800396    1.675938
  H      0.574336    3.815357    1.075354
  H      0.125993    3.548063   -1.210891
  H      3.009893    3.147915    1.061431
  H      3.452617    0.830875    1.652065
  H      0.977784   -0.046474    2.136555
  H      2.450903   -1.905737    1.360081
  H      0.261083   -2.588880    1.915675
  H      0.391975   -3.231929    0.276219
  H      4.093762   -1.343702   -1.758200
  H      3.624166    0.070574   -0.778851
  H      4.257944   -1.416776    0.025288
  H      1.925832   -0.939419   -2.680900
  H      0.523877   -1.628475   -1.863276
  H      0.148512    0.782967   -2.051116
  H      1.766277    1.130546   -1.491182

 Total Charge           Charge          ....    0
 Multiplicity           Mult            ....    1
 Number of Electrons    NEL             ....  168
 Basis Dimension        Dim             ....  427

ORBITAL ENERGIES
----------------

  NO   OCC          E(Eh)            E(eV)
   0   2.0000     -20.589092      -560.2577
   1   2.0000     -20.581269      -560.0448
   2   2.0000     -20.558494      -559.4251
   3   2.0000     -20.436723      -556.1115
   4   2.0000     -15.683406      -426.7672
   5   2.0000     -11.308920      -307.7314
   6   2.0000     -11.305047      -307.6260
   7   2.0000     -11.302539      -307.5577
   8   2.0000     -11.298116      -307.4374
   9   2.0000     -11.296211      -307.3855
  10   2.0000     -11.292845      -307.2939
  11   2.0000     -11.270406      -306.6833
  12   2.0000     -11.269616      -306.6618
  13   2.0000     -11.265478      -306.5493
  14   2.0000     -11.264562      -306.5243
  15   2.0000     -11.257620      -306.3354
  16   2.0000     -11.250249      -306.1348
  17   2.0000     -11.249012      -306.1012
  18   2.0000     -11.246603      -306.0356
  19   2.0000     -11.246523      -306.0334
  20   2.0000     -11.242029      -305.9112
  21   2.0000     -11.240608      -305.8725
  22   2.0000     -11.232032      -305.6391
  23   2.0000      -1.408534       -38.3282
  24   2.0000      -1.390758       -37.8445
  25   2.0000      -1.350997       -36.7625
  26   2.0000      -1.346822       -36.6489
  27   2.0000      -1.183929       -32.2164
  28   2.0000      -1.139009       -30.9940
  29   2.0000      -1.088302       -29.6142
  30   2.0000      -1.062354       -28.9081
  31   2.0000      -1.060682       -28.8626
  32   2.0000      -1.027080       -27.9483
  33   2.0000      -1.000329       -27.2203
  34   2.0000      -0.986234       -26.8368
  35   2.0000      -0.977100       -26.5882
  36   2.0000      -0.940144       -25.5826
  37   2.0000      -0.907503       -24.6944
  38   2.0000      -0.875656       -23.8278
  39   2.0000      -0.866931       -23.5904
  40   2.0000      -0.832003       -22.6399
  41   2.0000      -0.817724       -22.2514
  42   2.0000      -0.809946       -22.0398
  43   2.0000      -0.753719       -20.5097
  44   2.0000      -0.726709       -19.7747
  45   2.0000      -0.721148       -19.6234
  46   2.0000      -0.710243       -19.3267
  47   2.0000      -0.693693       -18.8763
  48   2.0000      -0.689773       -18.7697
  49   2.0000      -0.680928       -18.5290
  50   2.0000      -0.668777       -18.1983
  51   2.0000      -0.661030       -17.9875
  52   2.0000      -0.650493       -17.7008
  53   2.0000      -0.639320       -17.3968
  54   2.0000      -0.630442       -17.1552
  55   2.0000      -0.623230       -16.9589
  56   2.0000      -0.608811       -16.5666
  57   2.0000      -0.604197       -16.4410
  58   2.0000      -0.599523       -16.3138
  59   2.0000      -0.594438       -16.1755
  60   2.0000      -0.584333       -15.9005
  61   2.0000      -0.575778       -15.6677
  62   2.0000      -0.572131       -15.5685
  63   2.0000      -0.565191       -15.3796
  64   2.0000      -0.557776       -15.1778
  65   2.0000      -0.548865       -14.9354
  66   2.0000      -0.541321       -14.7301
  67   2.0000      -0.527185       -14.3454
  68   2.0000      -0.523119       -14.2348
  69   2.0000      -0.511689       -13.9238
  70   2.0000      -0.507859       -13.8196
  71   2.0000      -0.501642       -13.6504
  72   2.0000      -0.498748       -13.5716
  73   2.0000      -0.493811       -13.4373
  74   2.0000      -0.476960       -12.9788
  75   2.0000      -0.474567       -12.9136
  76   2.0000      -0.455334       -12.3903
  77   2.0000      -0.450708       -12.2644
  78   2.0000      -0.426505       -11.6058
  79   2.0000      -0.378333       -10.2950
  80   2.0000      -0.355593        -9.6762
  81   2.0000      -0.353428        -9.6173
  82   2.0000      -0.325136        -8.8474
  83   2.0000      -0.311929        -8.4880
  84   0.0000       0.121539         3.3072
  85   0.0000       0.133538         3.6338
  86   0.0000       0.142958         3.8901
  87   0.0000       0.163433         4.4472
  88   0.0000       0.179623         4.8878

MULLIKEN ATOMIC CHARGES
-----------------------
   0 C :    0.225813
   1 O :   -0.546885
   2 C :    0.249275
   3 C :   -0.133152
   4 C :   -0.033306
   5 C :   -0.148467
   6 C :   -0.080129
   7 C :    0.370074
   8 O :   -0.579955
   9 C :    0.346688
  10 C :    0.317097
  11 O :   -0.453245
  12 C :   -0.098723
  13 C :   -0.008773
  14 C :    0.020454
  15 C :    0.080388
  16 C :    0.211277
  17 N :   -0.343214
  18 C :    0.181120
  19 O :   -0.605132
  20 C :    0.202341
  21 C :    0.126167
  22 C :   -0.585871
  23 H :    0.034101
  24 H :    0.052070
  25 H :    0.032854
  26 H :    0.036463
  27 H :    0.029855
  28 H :    0.046663
  29 H :    0.036203
  30 H :    0.213771
  31 H :    0.060377
  32 H :    0.046682
  33 H :    0.068500
  34 H :    0.054333
  35 H :    0.051647
  36 H :    0.099482
  37 H :    0.071855
  38 H :    0.042839
  39 H :    0.052877
  40 H :    0.056581
  41 H :    0.075315
  42 H :    0.053820
  43 H :    0.069873
Sum of atomic charges:   -0.0000000

LOEWDIN ATOMIC CHARGES
----------------------
   0 C :    0.133788
   1 O :   -0.190749
   2 C :    0.065722
   3 C :   -0.069794
   4 C :   -0.018947
   5 C :   -0.049119
   6 C :   -0.045934
   7 C :    0.076096
   8 O :   -0.218665
   9 C :    0.121788
  10 C :    0.104384
  11 O :   -0.185441
  12 C :   -0.029692
  13 C :   -0.012306
  14 C :   -0.023483
  15 C :    0.085552
  16 C :    0.011074
  17 N :    0.153351
  18 C :    0.082331
  19 O :   -0.583497
  20 C :    0.086300
  21 C :   -0.007269
  22 C :   -0.063361
  23 H :    0.008592
  24 H :    0.021865
  25 H :    0.007647
  26 H :    0.028179
  27 H :    0.026473
  28 H :    0.020532
  29 H :    0.010572
  30 H :    0.091550
  31 H :    0.030906
  32 H :    0.023422
  33 H :    0.036586
  34 H :    0.023769
  35 H :    0.029940
  36 H :    0.044402
  37 H :    0.032589
  38 H :    0.008934
  39 H :    0.024212
  40 H :    0.027139
  41 H :    0.028570
  42 H :    0.032502
  43 H :    0.019491

  Mayer bond orders larger than 0.100000
B(  0-C ,  1-O ) :   0.8710 B(  0-C , 23-H ) :   0.9848 B(  0-C , 24-H ) :   0.9931
B(  0-C , 25-H ) :   0.9851 B(  1-O ,  2-C ) :   1.0268 B(  2-C ,  3-C ) :   1.3467
B(  2-C ,  7-C ) :   1.4386 B(  3-C ,  4-C ) :   1.4215 B(  3-C , 26-H ) :   1.0133
B(  4-C ,  5-C ) :   1.4455 B(  4-C , 27-H ) :   1.0040 B(  5-C ,  6-C ) :   1.4414
B(  5-C , 16-C ) :   0.9315 B(  6-C ,  7-C ) :   1.4052 B(  6-C , 22-C ) :   0.9297
B(  7-C ,  8-O ) :   0.9457 B(  8-O ,  9-C ) :   0.8780 B(  9-C , 10-C ) :   1.0127
B(  9-C , 22-C ) :   1.0004 B(  9-C , 28-H ) :   0.9790 B( 10-C , 11-O ) :   0.9319
B( 10-C , 12-C ) :   0.9831 B( 10-C , 29-H ) :   0.9709 B( 11-O , 30-H ) :   0.9587
B( 12-C , 13-C ) :   1.9742 B( 12-C , 31-H ) :   0.9836 B( 13-C , 14-C ) :   0.9740
B( 13-C , 32-H ) :   0.9859 B( 14-C , 15-C ) :   0.9436 B( 14-C , 22-C ) :   0.9598
B( 14-C , 33-H ) :   0.9443 B( 15-C , 16-C ) :   1.0312 B( 15-C , 17-N ) :   0.8219
B( 15-C , 34-H ) :   0.9646 B( 16-C , 35-H ) :   0.9643 B( 16-C , 36-H ) :   0.9481
B( 17-N , 18-C ) :   0.8331 B( 17-N , 19-O ) :   0.9187 B( 17-N , 20-C ) :   0.8098
B( 18-C , 37-H ) :   0.9824 B( 18-C , 38-H ) :   0.9711 B( 18-C , 39-H ) :   0.9850
B( 20-C , 21-C ) :   1.0128 B( 20-C , 40-H ) :   0.9813 B( 20-C , 41-H ) :   0.9712
B( 21-C , 22-C ) :   0.9250 B( 21-C , 42-H ) :   0.9653 B( 21-C , 43-H ) :   0.9615

FINAL SINGLE POINT ENERGY     -1046.784306025301

DIPOLE MOMENT
-------------
                                X             Y             Z
Electronic contribution:     -5.51455       4.21250       1.40517
Nuclear contribution   :      4.77834      -3.26250      -0.37268
                        -----------------------------------------
Total Dipole Moment    :     -0.73621       0.94999       1.03249
                        -----------------------------------------
Magnitude (a.u.)       :      1.58446
Magnitude (Debye)      :      4.02738

Rotational constants in cm-1:     0.014256     0.008061     0.005934
Rotational constants in MHz :   427.395230   241.662155   177.906496

                             ****ORCA TERMINATED NORMALLY****
TOTAL RUN TIME: 0 days 0 hours 0 minutes 41 seconds 896 msec
