                         Program Version 5.0.3 -  RELEASE  -
|  1> !RHF def2-SVP TightSCF PAL16
|  2> *xyz 0 1
|  3> O -3.214796006681216 2.6798114176299714 1.1804622123114357
|  4> C -2.451585189067333 2.143003208833192 0.09871145555120059
|  5> C -3.2752963536016817 1.0891410521382896 -0.5690183688173898
|  6> C -2.6872621807399764 0.001199129085229777 -1.0862833955275066
|  7> C -3.3530322329075486 -1.310631096623992 -1.3821873822061355
|  8> C -2.2224574827996895 -2.315711545995781 -1.0827492217402863
|  9> N -1.1729702358919922 -1.518551926473817 -0.42636222703945703
| 10> C 0.15522683916551835 -2.1046164800417104 -0.4787134758278356
| 11> C 1.2173672381758787 -1.1385687082313685 0.017611708689735116
| 12> C 2.4587752429701264 -1.6624203911980229 0.42384533157353577
| 13> C 3.456011549864733 -0.7813539384314737 0.7785074537030501
| 14> C 3.2716128743863404 0.577349142208192 0.7257354451608169
| 15> C 2.075880339286014 1.1338864269267954 0.3259146527043658
| 16> C 1.0144221846401862 0.2738419405764476 -0.014215823492035552
| 17> C -0.3282962008792749 0.8630225181618577 -0.4548483090920176
| 18> C -1.121851877285571 1.57272369096702 0.6668622140180949
| 19> O -0.4045800700874442 2.685088206844049 1.2349919754336094
| 20> C -1.2056694948346556 -0.22354997601131937 -1.1173745198224783
| 21> O 4.383286712480635 1.2675323750697287 1.095841947749433
| 22> C 5.288277254884429 0.18376119450295372 1.3925475389079756
| 23> O 4.7074820866219955 -1.1209063642578547 1.187609390762978
| 24> H -2.5789831480364005 3.230430309823369 1.676731349983876
| 25> H -2.2620915429722332 2.9704843321731635 -0.5945675516378726
| 26> H -4.355758876905992 1.1609065867741017 -0.4903760277894286
| 27> H -4.215722912198555 -1.480985895633745 -0.7302113094207344
| 28> H -3.660770943873118 -1.3711556656873833 -2.430533867306823
| 29> H -2.570528568321232 -3.12506367572184 -0.4327059632682109
| 30> H -1.8716332020705944 -2.758698988928975 -2.0238830961036287
| 31> H 0.1676905367372257 -3.0037126533116263 0.14890961380384693
| 32> H 0.42329207424124377 -2.400671182444156 -1.5014211116945202
| 33> H 2.6419217592782496 -2.731661774781475 0.44854039206206914
| 34> H 1.9760408339599658 2.2133768234594435 0.26719364799234346
| 35> H -0.09103141336924339 1.61275750839684 -1.224657845894138
| 36> H -1.3345032481144046 0.8859291610284685 1.49743543278858
| 37> H 0.24881259929125518 2.2981993339497033 1.8469962246295977
| 38> H -0.8825798943297479 -0.3399851381724004 -2.1637450528008664
| 39> H 6.171466799092283 0.2789810602356364 0.7504044160178632
| 40> H 5.60383414989022 0.26681998316103256 2.4390021456372897
| 41> *
| 42>
| 43>                          ****END OF INPUT****

CARTESIAN COORDINATES (ANGSTROEM)
---------------------------------
  O     -3.214796    2.679811    1.180462
  C     -2.451585    2.143003    0.098711
  C     -3.275296    1.089141   -0.569018
  C     -2.687262    0.001199   -1.086283
  C     -3.353032   -1.310631   -1.382187
  C     -2.222457   -2.315712   -1.082749
  N     -1.172970   -1.518552   -0.426362
  C      0.155227   -2.104616   -0.478713
  C      1.217367   -1.138569    0.017612
  C      2.458775   -1.662420    0.423845
  C      3.456012   -0.781354    0.778507
  C      3.271613    0.577349    0.725735
  C      2.075880    1.133886    0.325915
  C      1.014422    0.273842   -0.014216
  C     -0.328296    0.863023   -0.454848
  C     -1.121852    1.572724    0.666862
  O     -0.404580    2.685088    1.234992
  C     -1.205669   -0.223550   -1.117375
  O      4.383287    1.267532    1.095842
  C      5.288277    0.183761    1.392548
  O      4.707482   -1.120906    1.187609
  H     -2.578983    3.230430    1.676731
  H     -2.262092    2.970484   -0.594568
  H     -4.355759    1.160907   -0.490376
  H     -4.215723   -1.480986   -0.730211
  H     -3.660771   -1.371156   -2.430534
  H     -2.570529   -3.125064   -0.432706
  H     -1.871633   -2.758699   -2.023883
  H      0.167691   -3.003713    0.148910
  H      0.423292   -2.400671   -1.501421
  H      2.641922   -2.731662    0.448540
  H      1.976041    2.213377    0.267194
  H     -0.091031    1.612758   -1.224658
  H     -1.334503    0.885929    1.497435
  H      0.248813    2.298199    1.846996
  H     -0.882580   -0.339985   -2.163745
  H      6.171467    0.278981    0.750404
  H      5.603834    0.266820    2.439002

 Total Charge           Charge          ....    0
 Multiplicity           Mult            ....    1
 Number of Electrons    NEL             ....  152
 Basis Dimension        Dim             ....  379

ORBITAL ENERGIES
----------------

  NO   OCC          E(Eh)            E(eV)
   0   2.0000     -20.604563      -560.6787
   1   2.0000     -20.604002      -560.6634
   2   2.0000     -20.562295      -559.5285
   3   2.0000     -20.535736      -558.8058
   4   2.0000     -15.554687      -423.2646
   5   2.0000     -11.365038      -309.2584
   6   2.0000     -11.303686      -307.5889
   7   2.0000     -11.301919      -307.5409
   8   2.0000     -11.287970      -307.1613
   9   2.0000     -11.279341      -306.9265
  10   2.0000     -11.267525      -306.6049
  11   2.0000     -11.266793      -306.5850
  12   2.0000     -11.260777      -306.4213
  13   2.0000     -11.256180      -306.2962
  14   2.0000     -11.254770      -306.2579
  15   2.0000     -11.249006      -306.1010
  16   2.0000     -11.248670      -306.0919
  17   2.0000     -11.248571      -306.0892
  18   2.0000     -11.235622      -305.7368
  19   2.0000     -11.233517      -305.6795
  20   2.0000     -11.224388      -305.4311
  21   2.0000      -1.473697       -40.1013
  22   2.0000      -1.376363       -37.4527
  23   2.0000      -1.354685       -36.8628
  24   2.0000      -1.320368       -35.9290
  25   2.0000      -1.255218       -34.1562
  26   2.0000      -1.158287       -31.5186
  27   2.0000      -1.102916       -30.0119
  28   2.0000      -1.071579       -29.1591
  29   2.0000      -1.035478       -28.1768
  30   2.0000      -1.007619       -27.4187
  31   2.0000      -0.983778       -26.7700
  32   2.0000      -0.960656       -26.1408
  33   2.0000      -0.926823       -25.2201
  34   2.0000      -0.889823       -24.2133
  35   2.0000      -0.866336       -23.5742
  36   2.0000      -0.843688       -22.9579
  37   2.0000      -0.823830       -22.4176
  38   2.0000      -0.809126       -22.0174
  39   2.0000      -0.774920       -21.0866
  40   2.0000      -0.734961       -19.9993
  41   2.0000      -0.726920       -19.7805
  42   2.0000      -0.722499       -19.6602
  43   2.0000      -0.702010       -19.1027
  44   2.0000      -0.690435       -18.7877
  45   2.0000      -0.674208       -18.3461
  46   2.0000      -0.668736       -18.1972
  47   2.0000      -0.652479       -17.7549
  48   2.0000      -0.630750       -17.1636
  49   2.0000      -0.627764       -17.0823
  50   2.0000      -0.624106       -16.9828
  51   2.0000      -0.620443       -16.8831
  52   2.0000      -0.610955       -16.6249
  53   2.0000      -0.603929       -16.4337
  54   2.0000      -0.588039       -16.0013
  55   2.0000      -0.581689       -15.8286
  56   2.0000      -0.580547       -15.7975
  57   2.0000      -0.577495       -15.7144
  58   2.0000      -0.566851       -15.4248
  59   2.0000      -0.556111       -15.1325
  60   2.0000      -0.548050       -14.9132
  61   2.0000      -0.535752       -14.5786
  62   2.0000      -0.530519       -14.4361
  63   2.0000      -0.516442       -14.0531
  64   2.0000      -0.511195       -13.9103
  65   2.0000      -0.504161       -13.7189
  66   2.0000      -0.495588       -13.4856
  67   2.0000      -0.477787       -13.0013
  68   2.0000      -0.466353       -12.6901
  69   2.0000      -0.450169       -12.2497
  70   2.0000      -0.445429       -12.1207
  71   2.0000      -0.428416       -11.6578
  72   2.0000      -0.373968       -10.1762
  73   2.0000      -0.342749        -9.3267
  74   2.0000      -0.341984        -9.3059
  75   2.0000      -0.304232        -8.2786
  76   0.0000       0.114862         3.1255
  77   0.0000       0.136229         3.7070
  78   0.0000       0.161065         4.3828
  79   0.0000       0.173735         4.7276
  80   0.0000       0.191827         5.2199

MULLIKEN ATOMIC CHARGES
-----------------------
   0 O :   -0.469413
   1 C :    0.329392
   2 C :   -0.096465
   3 C :   -0.167161
   4 C :    0.052218
   5 C :    0.210574
   6 N :   -0.668690
   7 C :    0.354641
   8 C :   -0.159491
   9 C :   -0.082672
  10 C :    0.246924
  11 C :    0.250378
  12 C :   -0.113042
  13 C :   -0.117757
  14 C :    0.016124
  15 C :    0.234103
  16 O :   -0.482616
  17 C :    0.169744
  18 O :   -0.526931
  19 C :    0.551055
  20 O :   -0.527360
  21 H :    0.205451
  22 H :    0.029490
  23 H :    0.044956
  24 H :    0.051345
  25 H :    0.049258
  26 H :    0.037785
  27 H :    0.009495
  28 H :    0.034056
  29 H :    0.022957
  30 H :    0.037108
  31 H :    0.053977
  32 H :    0.046954
  33 H :    0.040196
  34 H :    0.213129
  35 H :    0.027850
  36 H :    0.046531
  37 H :    0.045907
Sum of atomic charges:   -0.0000000

LOEWDIN ATOMIC CHARGES
----------------------
   0 O :   -0.199468
   1 C :    0.106343
   2 C :   -0.040639
   3 C :   -0.034232
   4 C :   -0.006216
   5 C :    0.074284
   6 N :   -0.189784
   7 C :    0.073193
   8 C :   -0.032661
   9 C :   -0.039583
  10 C :    0.046707
  11 C :    0.040408
  12 C :   -0.044268
  13 C :   -0.035423
  14 C :   -0.019708
  15 C :    0.112502
  16 O :   -0.200953
  17 C :    0.058651
  18 O :   -0.193322
  19 C :    0.289803
  20 O :   -0.192612
  21 H :    0.084164
  22 H :    0.007453
  23 H :    0.029314
  24 H :    0.027594
  25 H :    0.024099
  26 H :    0.013144
  27 H :   -0.005025
  28 H :    0.018992
  29 H :    0.001955
  30 H :    0.035206
  31 H :    0.037824
  32 H :    0.029078
  33 H :    0.013162
  34 H :    0.087603
  35 H :    0.001781
  36 H :    0.010552
  37 H :    0.010081

  Mayer bond orders larger than 0.100000
B(  0-O ,  1-C ) :   0.9334 B(  0-O , 21-H ) :   0.9605 B(  1-C ,  2-C ) :   0.9785
B(  1-C , 15-C ) :   1.0402 B(  1-C , 22-H ) :   0.9411 B(  2-C ,  3-C ) :   1.9996
B(  2-C , 23-H ) :   0.9885 B(  3-C ,  4-C ) :   1.0102 B(  3-C , 17-C ) :   0.9665
B(  4-C ,  5-C ) :   1.0668 B(  4-C , 24-H ) :   0.9700 B(  4-C , 25-H ) :   0.9583
B(  5-C ,  6-N ) :   0.9327 B(  5-C , 26-H ) :   0.9743 B(  5-C , 27-H ) :   0.9661
B(  6-N ,  7-C ) :   0.9299 B(  6-N , 17-C ) :   0.8925 B(  7-C ,  8-C ) :   0.9845
B(  7-C , 28-H ) :   0.9663 B(  7-C , 29-H ) :   0.9601 B(  8-C ,  9-C ) :   1.4098
B(  8-C , 13-C ) :   1.4646 B(  9-C , 10-C ) :   1.4405 B(  9-C , 30-H ) :   1.0130
B( 10-C , 11-C ) :   1.3370 B( 10-C , 20-O ) :   0.9565 B( 11-C , 12-C ) :   1.4216
B( 11-C , 18-O ) :   0.9541 B( 12-C , 13-C ) :   1.3906 B( 12-C , 31-H ) :   1.0195
B( 13-C , 14-C ) :   0.9770 B( 14-C , 15-C ) :   0.9970 B( 14-C , 17-C ) :   0.9960
B( 14-C , 32-H ) :   0.9412 B( 15-C , 16-O ) :   0.9109 B( 15-C , 33-H ) :   0.9648
B( 16-O , 34-H ) :   0.9593 B( 17-C , 35-H ) :   0.9441 B( 18-O , 19-C ) :   0.8983
B( 19-C , 20-O ) :   0.8978 B( 19-C , 36-H ) :   0.9837 B( 19-C , 37-H ) :   0.9836

FINAL SINGLE POINT ENERGY      -968.889270570945

DIPOLE MOMENT
-------------
                                X             Y             Z
Electronic contribution:     11.99839       3.65813       4.44596
Nuclear contribution   :    -11.23600      -4.54205      -4.83465
                        -----------------------------------------
Total Dipole Moment    :      0.76240      -0.88392      -0.38869
                        -----------------------------------------
Magnitude (a.u.)       :      1.23030
Magnitude (Debye)      :      3.12718

Rotational constants in cm-1:     0.020100     0.006954     0.005376
Rotational constants in MHz :   602.584779   208.481672   161.171003

                             ****ORCA TERMINATED NORMALLY****
TOTAL RUN TIME: 0 days 0 hours 0 minutes 24 seconds 882 msec
