                         Program Version 5.0.3 -  RELEASE  -
|  1> !RHF def2-SVP TightSCF PAL16
|  2> *xyz 0 1
|  3> C -3.8037399515740575 -1.1945622857598068 -1.2013723906522547
|  4> N -3.9201111185871924 0.08627011416220158 -0.4361851989105234
|  5> O -5.24846978284641 0.4576503620033518 -0.5147364816563231
|  6> C -3.035399601772762 1.2095380027095837 -0.9307047117747512
|  7> C -3.242658225592249 2.279662629406546 0.15642081442664715
|  8> C -3.5379415587837912 1.4854540830960472 1.4401090943914605
|  9> C -3.4843939614575152 0.007955671767154475 1.0109330850604816
| 10> C -2.0569396214641156 -0.5449257424439475 1.1377425946934965
| 11> C -1.0288588155474894 0.2974961373611125 0.3635677843786233
| 12> O 0.16044166351000808 -0.4752720319201714 0.11524087871471554
| 13> C 1.0492716856008713 -0.5647894615355226 1.1484229669494226
| 14> O 0.8835020891022877 -0.0645875850766917 2.253554532313807
| 15> C 2.27738249086293 -1.3473014489272055 0.7204417754260845
| 16> C 2.9457790293407817 -1.9728082702999565 1.9512538273851348
| 17> O 3.877641488063926 -2.9844845604541983 1.5638400116123452
| 18> C 3.245113926785995 -0.48924305531148904 -0.0798840670510933
| 19> C 3.657715591378227 -0.905268727177756 -1.3550165840616453
| 20> C 4.553529090887027 -0.13475847123762677 -2.0978506727503556
| 21> C 5.0486062319860965 1.0580424291429709 -1.5759952242933648
| 22> C 4.64936048865896 1.4822031143130918 -0.31075744103979264
| 23> C 3.7534213263772895 0.7142724176443309 0.4346842559346188
| 24> C -1.5644067440583669 0.7746344393713819 -0.9964229069309427
| 25> H -2.782287871568297 -1.569524751790723 -1.1928802484412089
| 26> H -4.477795152680584 -1.912810938365816 -0.7258620211778403
| 27> H -4.124963059956233 -0.9850524826394382 -2.2255792586120826
| 28> H -3.408450983644305 1.5261068264748272 -1.9103626609676443
| 29> H -4.106087820520387 2.9095926384092827 -0.08908772952674941
| 30> H -2.380954893750656 2.9455326568648403 0.2684965938718463
| 31> H -2.834245408301031 1.7208603256206816 2.2450511144957996
| 32> H -4.540441112062047 1.740231941619568 1.804450570503831
| 33> H -4.208922450183245 -0.6137147434401503 1.5474452492020936
| 34> H -1.77280574051625 -0.5735345399026773 2.197010987766315
| 35> H -2.013046877795854 -1.5898024670829665 0.8103256480504243
| 36> H -0.7626093116043826 1.1876143215528436 0.9488292109612354
| 37> H 1.9251351712801548 -2.1760484663622135 0.09051855712006361
| 38> H 3.4703738988295885 -1.2368264887902671 2.570525804573956
| 39> H 2.1978883596345917 -2.4594844349502085 2.587158800376835
| 40> H 4.616509061568048 -2.535431804254887 1.112976324742868
| 41> H 3.286415722699078 -1.8354370751766944 -1.781283575002014
| 42> H 4.866291209743284 -0.4657874100551298 -3.085123033590603
| 43> H 5.7466530575709225 1.657211074384496 -2.1551053719622053
| 44> H 5.036388406818167 2.413092748786117 0.09670358580587103
| 45> H 3.457495369064081 1.0686765065635295 1.4211977465133698
| 46> H -1.4236655307695267 -0.0037118737742102273 -1.7554793788308711
| 47> H -0.9457197647238069 1.6130706754775126 -1.3422566901819093
| 48> *
| 49>
| 50>                          ****END OF INPUT****

CARTESIAN COORDINATES (ANGSTROEM)
---------------------------------
  C     -3.803740   -1.194562   -1.201372
  N     -3.920111    0.086270   -0.436185
  O     -5.248470    0.457650   -0.514736
  C     -3.035400    1.209538   -0.930705
  C     -3.242658    2.279663    0.156421
  C     -3.537942    1.485454    1.440109
  C     -3.484394    0.007956    1.010933
  C     -2.056940   -0.544926    1.137743
  C     -1.028859    0.297496    0.363568
  O      0.160442   -0.475272    0.115241
  C      1.049272   -0.564789    1.148423
  O      0.883502   -0.064588    2.253555
  C      2.277382   -1.347301    0.720442
  C      2.945779   -1.972808    1.951254
  O      3.877641   -2.984485    1.563840
  C      3.245114   -0.489243   -0.079884
  C      3.657716   -0.905269   -1.355017
  C      4.553529   -0.134758   -2.097851
  C      5.048606    1.058042   -1.575995
  C      4.649360    1.482203   -0.310757
  C      3.753421    0.714272    0.434684
  C     -1.564407    0.774634   -0.996423
  H     -2.782288   -1.569525   -1.192880
  H     -4.477795   -1.912811   -0.725862
  H     -4.124963   -0.985052   -2.225579
  H     -3.408451    1.526107   -1.910363
  H     -4.106088    2.909593   -0.089088
  H     -2.380955    2.945533    0.268497
  H     -2.834245    1.720860    2.245051
  H     -4.540441    1.740232    1.804451
  H     -4.208922   -0.613715    1.547445
  H     -1.772806   -0.573535    2.197011
  H     -2.013047   -1.589802    0.810326
  H     -0.762609    1.187614    0.948829
  H      1.925135   -2.176048    0.090519
  H      3.470374   -1.236826    2.570526
  H      2.197888   -2.459484    2.587159
  H      4.616509   -2.535432    1.112976
  H      3.286416   -1.835437   -1.781284
  H      4.866291   -0.465787   -3.085123
  H      5.746653    1.657211   -2.155105
  H      5.036388    2.413093    0.096704
  H      3.457495    1.068677    1.421198
  H     -1.423666   -0.003712   -1.755479
  H     -0.945720    1.613071   -1.342257

 Total Charge           Charge          ....    0
 Multiplicity           Mult            ....    1
 Number of Electrons    NEL             ....  164
 Basis Dimension        Dim             ....  423

ORBITAL ENERGIES
----------------

  NO   OCC          E(Eh)            E(eV)
   0   2.0000     -20.615473      -560.9755
   1   2.0000     -20.563880      -559.5716
   2   2.0000     -20.553933      -559.3010
   3   2.0000     -20.439043      -556.1746
   4   2.0000     -15.681100      -426.7044
   5   2.0000     -11.407145      -310.4042
   6   2.0000     -11.314086      -307.8719
   7   2.0000     -11.291909      -307.2685
   8   2.0000     -11.281961      -306.9978
   9   2.0000     -11.280868      -306.9680
  10   2.0000     -11.273187      -306.7590
  11   2.0000     -11.269263      -306.6522
  12   2.0000     -11.267235      -306.5970
  13   2.0000     -11.257659      -306.3365
  14   2.0000     -11.257387      -306.3291
  15   2.0000     -11.255885      -306.2882
  16   2.0000     -11.255385      -306.2746
  17   2.0000     -11.253719      -306.2292
  18   2.0000     -11.250842      -306.1510
  19   2.0000     -11.247482      -306.0596
  20   2.0000     -11.233059      -305.6671
  21   2.0000     -11.231888      -305.6352
  22   2.0000      -1.455306       -39.6009
  23   2.0000      -1.360986       -37.0343
  24   2.0000      -1.357052       -36.9273
  25   2.0000      -1.340853       -36.4865
  26   2.0000      -1.166395       -31.7392
  27   2.0000      -1.151418       -31.3317
  28   2.0000      -1.089083       -29.6355
  29   2.0000      -1.049206       -28.5503
  30   2.0000      -1.048117       -28.5207
  31   2.0000      -1.043873       -28.4052
  32   2.0000      -1.021859       -27.8062
  33   2.0000      -0.993302       -27.0291
  34   2.0000      -0.936008       -25.4701
  35   2.0000      -0.902918       -24.5697
  36   2.0000      -0.897253       -24.4155
  37   2.0000      -0.859211       -23.3803
  38   2.0000      -0.839604       -22.8468
  39   2.0000      -0.817869       -22.2553
  40   2.0000      -0.802108       -21.8265
  41   2.0000      -0.782049       -21.2806
  42   2.0000      -0.750687       -20.4272
  43   2.0000      -0.726446       -19.7676
  44   2.0000      -0.714461       -19.4415
  45   2.0000      -0.710762       -19.3408
  46   2.0000      -0.695327       -18.9208
  47   2.0000      -0.689708       -18.7679
  48   2.0000      -0.667100       -18.1527
  49   2.0000      -0.655712       -17.8428
  50   2.0000      -0.650596       -17.7036
  51   2.0000      -0.641657       -17.4604
  52   2.0000      -0.636032       -17.3073
  53   2.0000      -0.631449       -17.1826
  54   2.0000      -0.617165       -16.7939
  55   2.0000      -0.605100       -16.4656
  56   2.0000      -0.603250       -16.4153
  57   2.0000      -0.589264       -16.0347
  58   2.0000      -0.586783       -15.9672
  59   2.0000      -0.575317       -15.6552
  60   2.0000      -0.566981       -15.4283
  61   2.0000      -0.564518       -15.3613
  62   2.0000      -0.562299       -15.3009
  63   2.0000      -0.552972       -15.0471
  64   2.0000      -0.538068       -14.6416
  65   2.0000      -0.526420       -14.3246
  66   2.0000      -0.521624       -14.1941
  67   2.0000      -0.517629       -14.0854
  68   2.0000      -0.511776       -13.9261
  69   2.0000      -0.507443       -13.8082
  70   2.0000      -0.494922       -13.4675
  71   2.0000      -0.490391       -13.3442
  72   2.0000      -0.485530       -13.2119
  73   2.0000      -0.470568       -12.8048
  74   2.0000      -0.466212       -12.6863
  75   2.0000      -0.464886       -12.6502
  76   2.0000      -0.454549       -12.3689
  77   2.0000      -0.450221       -12.2511
  78   2.0000      -0.359912        -9.7937
  79   2.0000      -0.356805        -9.7092
  80   2.0000      -0.355627        -9.6771
  81   2.0000      -0.350679        -9.5425
  82   0.0000       0.107253         2.9185
  83   0.0000       0.110056         2.9948
  84   0.0000       0.154545         4.2054
  85   0.0000       0.164755         4.4832
  86   0.0000       0.173423         4.7191

MULLIKEN ATOMIC CHARGES
-----------------------
   0 C :    0.185479
   1 N :   -0.329354
   2 O :   -0.608802
   3 C :   -0.023384
   4 C :    0.033240
   5 C :    0.035681
   6 C :   -0.015379
   7 C :    0.032994
   8 C :    0.173314
   9 O :   -0.560421
  10 C :    0.555836
  11 O :   -0.423746
  12 C :   -0.102914
  13 C :    0.379132
  14 O :   -0.477160
  15 C :   -0.189711
  16 C :   -0.018870
  17 C :   -0.035649
  18 C :   -0.034421
  19 C :   -0.031238
  20 C :   -0.018658
  21 C :    0.072754
  22 H :    0.035151
  23 H :    0.065518
  24 H :    0.064713
  25 H :    0.064050
  26 H :    0.067784
  27 H :    0.036174
  28 H :    0.043337
  29 H :    0.067613
  30 H :    0.063959
  31 H :    0.075119
  32 H :    0.048020
  33 H :    0.065460
  34 H :    0.072740
  35 H :    0.034785
  36 H :    0.039802
  37 H :    0.202729
  38 H :    0.042903
  39 H :    0.047168
  40 H :    0.047509
  41 H :    0.047807
  42 H :    0.057805
  43 H :    0.054298
  44 H :    0.056828
Sum of atomic charges:    0.0000000

LOEWDIN ATOMIC CHARGES
----------------------
   0 C :    0.080751
   1 N :    0.154809
   2 O :   -0.584433
   3 C :    0.066203
   4 C :   -0.009916
   5 C :   -0.009378
   6 C :    0.066941
   7 C :   -0.031525
   8 C :    0.121345
   9 O :   -0.184505
  10 C :    0.238630
  11 O :   -0.274027
  12 C :   -0.051853
  13 C :    0.142856
  14 O :   -0.203516
  15 C :   -0.035775
  16 C :   -0.021130
  17 C :   -0.020222
  18 C :   -0.022351
  19 C :   -0.018351
  20 C :   -0.023064
  21 C :   -0.023865
  22 H :    0.004298
  23 H :    0.031077
  24 H :    0.030704
  25 H :    0.027384
  26 H :    0.033685
  27 H :    0.012982
  28 H :    0.016116
  29 H :    0.033612
  30 H :    0.027687
  31 H :    0.033482
  32 H :    0.018634
  33 H :    0.019273
  34 H :    0.041325
  35 H :    0.008036
  36 H :    0.018568
  37 H :    0.085024
  38 H :    0.029352
  39 H :    0.029912
  40 H :    0.029130
  41 H :    0.030315
  42 H :    0.031455
  43 H :    0.021255
  44 H :    0.029066

  Mayer bond orders larger than 0.100000
B(  0-C ,  1-N ) :   0.8477 B(  0-C , 22-H ) :   0.9718 B(  0-C , 23-H ) :   0.9855
B(  0-C , 24-H ) :   0.9857 B(  1-N ,  2-O ) :   0.9217 B(  1-N ,  3-C ) :   0.7976
B(  1-N ,  6-C ) :   0.7960 B(  3-C ,  4-C ) :   1.0060 B(  3-C , 21-C ) :   0.9731
B(  3-C , 25-H ) :   0.9653 B(  4-C ,  5-C ) :   1.0345 B(  4-C , 26-H ) :   0.9510
B(  4-C , 27-H ) :   0.9842 B(  5-C ,  6-C ) :   1.0106 B(  5-C , 28-H ) :   0.9835
B(  5-C , 29-H ) :   0.9520 B(  6-C ,  7-C ) :   0.9782 B(  6-C , 30-H ) :   0.9650
B(  7-C ,  8-C ) :   1.0169 B(  7-C , 31-H ) :   0.9633 B(  7-C , 32-H ) :   0.9687
B(  8-C ,  9-O ) :   0.7835 B(  8-C , 21-C ) :   1.0009 B(  8-C , 33-H ) :   0.9614
B(  9-O , 10-C ) :   1.0744 B( 10-C , 11-O ) :   1.9311 B( 10-C , 12-C ) :   0.9204
B( 12-C , 13-C ) :   1.0007 B( 12-C , 15-C ) :   0.9765 B( 12-C , 34-H ) :   0.9523
B( 13-C , 14-O ) :   0.9182 B( 13-C , 35-H ) :   0.9752 B( 13-C , 36-H ) :   0.9786
B( 14-O , 37-H ) :   0.9696 B( 15-C , 16-C ) :   1.4368 B( 15-C , 20-C ) :   1.3920
B( 16-C , 17-C ) :   1.4227 B( 16-C , 38-H ) :   1.0015 B( 17-C , 18-C ) :   1.4172
B( 17-C , 39-H ) :   0.9991 B( 18-C , 19-C ) :   1.4085 B( 18-C , 40-H ) :   0.9996
B( 19-C , 20-C ) :   1.4340 B( 19-C , 41-H ) :   0.9998 B( 20-C , 42-H ) :   0.9963
B( 21-C , 43-H ) :   0.9719 B( 21-C , 44-H ) :   0.9692

FINAL SINGLE POINT ENERGY     -1010.206602319245

DIPOLE MOMENT
-------------
                                X             Y             Z
Electronic contribution:     10.25908      -2.00550       1.27587
Nuclear contribution   :     -8.27669       2.22673      -1.99131
                        -----------------------------------------
Total Dipole Moment    :      1.98239       0.22123      -0.71544
                        -----------------------------------------
Magnitude (a.u.)       :      2.11912
Magnitude (Debye)      :      5.38638

Rotational constants in cm-1:     0.018904     0.004435     0.004139
Rotational constants in MHz :   566.723679   132.971771   124.096591

                             ****ORCA TERMINATED NORMALLY****
TOTAL RUN TIME: 0 days 0 hours 0 minutes 30 seconds 640 msec
