                         Program Version 5.0.3 -  RELEASE  -
|  1> !RHF def2-SVP TightSCF PAL16
|  2> *xyz 0 1
|  3> C 0.8866545447064076 -0.8565584373172471 -2.087885889352215
|  4> C 1.6205301958444844 -1.3710314301254267 -0.8323638462992953
|  5> C 1.6935074647483788 -2.9170447191708577 -0.9349149568395886
|  6> C 3.0849185615138666 -0.8884023731944191 -0.8772636782748938
|  7> C 3.2220343334649697 0.5701366561659756 -0.5555158334591518
|  8> O 4.171521288805827 1.2284405287357472 -0.9854696244330087
|  9> C 2.1755710014656686 1.2039585577625609 0.3107791133808219
| 10> C 1.4245824965759162 0.18837271144628387 1.1930426397214073
| 11> C 2.3536414489818194 -0.37099041650539216 2.2971476659281844
| 12> C 0.33649883544154935 1.0075649983194304 1.9368902678477609
| 13> N 0.9257809089498908 -0.955253934891351 0.4051765485534362
| 14> C -0.392350986945758 -1.5292039762064853 0.7190951307490123
| 15> C -1.5858404846349903 -0.7431432378990133 0.2757718787970013
| 16> N -1.7596629498394112 0.06488960775212402 -0.7477799197846686
| 17> C -3.054663086128723 0.47200148986540186 -0.5768817832340251
| 18> C -3.722179353284809 1.473676042924692 -1.559759106259367
| 19> C -5.0468274804545805 2.117813542992243 -1.2384208582010405
| 20> C -3.7843094283348826 2.9307419906875904 -1.1689653609869004
| 21> N -3.677173265674147 -0.05022109138313451 0.4867217280035973
| 22> O -2.6991906915574475 -0.8606536742258526 1.060146591446315
| 23> H -0.08749660356270203 -1.340658183986101 -2.2104128387871116
| 24> H 0.7300128862388907 0.22489070023546393 -2.058240033614852
| 25> H 1.4570141241161685 -1.0787547570426461 -2.997418323175593
| 26> H 0.7252132565949188 -3.369470951003617 -1.1772525302624304
| 27> H 2.053269261448524 -3.3602136959969457 0.0026506733920189755
| 28> H 2.3831673342996678 -3.2263045354789366 -1.729483388230708
| 29> H 3.5119734010153154 -1.0540812936663926 -1.873856621310118
| 30> H 3.70990277481134 -1.440672169050464 -0.1668602534257265
| 31> H 1.4781810670482458 1.7262262212383745 -0.35643575191763516
| 32> H 2.67068279996797 1.9587149481163013 0.9336852970145216
| 33> H 1.7899874560850537 -0.9928425216721031 3.0029878545800917
| 34> H 2.8136840987278156 0.44090634121692024 2.8713336670883565
| 35> H 3.1668451446565995 -0.9904519031136486 1.9077977751064412
| 36> H -0.22170946860208915 0.400679878984852 2.651939379333649
| 37> H -0.3692756776132217 1.4757627005794152 1.244915773430486
| 38> H 0.7929047491195842 1.821044976019639 2.515338202342165
| 39> H -0.45284170190653994 -1.6980313500347073 1.8022492989712373
| 40> H -0.5044789316199597 -2.5295432094729264 0.2948102678641581
| 41> H -3.521420453016542 1.2499787649330072 -2.6024845015686515
| 42> H -5.542208553395441 1.8694842696654475 -0.30683204777018414
| 43> H -5.727749352439022 2.308934707033611 -2.059473322992212
| 44> H -3.422535429437791 3.221487665015127 -0.18938297847716673
| 45> H -3.6061655361831204 3.6678205617452724 -1.9433992050825952
| 46> *
| 47>
| 48>                          ****END OF INPUT****

CARTESIAN COORDINATES (ANGSTROEM)
---------------------------------
  C      0.886655   -0.856558   -2.087886
  C      1.620530   -1.371031   -0.832364
  C      1.693507   -2.917045   -0.934915
  C      3.084919   -0.888402   -0.877264
  C      3.222034    0.570137   -0.555516
  O      4.171521    1.228441   -0.985470
  C      2.175571    1.203959    0.310779
  C      1.424582    0.188373    1.193043
  C      2.353641   -0.370990    2.297148
  C      0.336499    1.007565    1.936890
  N      0.925781   -0.955254    0.405177
  C     -0.392351   -1.529204    0.719095
  C     -1.585840   -0.743143    0.275772
  N     -1.759663    0.064890   -0.747780
  C     -3.054663    0.472001   -0.576882
  C     -3.722179    1.473676   -1.559759
  C     -5.046827    2.117814   -1.238421
  C     -3.784309    2.930742   -1.168965
  N     -3.677173   -0.050221    0.486722
  O     -2.699191   -0.860654    1.060147
  H     -0.087497   -1.340658   -2.210413
  H      0.730013    0.224891   -2.058240
  H      1.457014   -1.078755   -2.997418
  H      0.725213   -3.369471   -1.177253
  H      2.053269   -3.360214    0.002651
  H      2.383167   -3.226305   -1.729483
  H      3.511973   -1.054081   -1.873857
  H      3.709903   -1.440672   -0.166860
  H      1.478181    1.726226   -0.356436
  H      2.670683    1.958715    0.933685
  H      1.789987   -0.992843    3.002988
  H      2.813684    0.440906    2.871334
  H      3.166845   -0.990452    1.907798
  H     -0.221709    0.400680    2.651939
  H     -0.369276    1.475763    1.244916
  H      0.792905    1.821045    2.515338
  H     -0.452842   -1.698031    1.802249
  H     -0.504479   -2.529543    0.294810
  H     -3.521420    1.249979   -2.602485
  H     -5.542209    1.869484   -0.306832
  H     -5.727749    2.308935   -2.059473
  H     -3.422535    3.221488   -0.189383
  H     -3.606166    3.667821   -1.943399

 Total Charge           Charge          ....    0
 Multiplicity           Mult            ....    1
 Number of Electrons    NEL             ....  150
 Basis Dimension        Dim             ....  395

ORBITAL ENERGIES
----------------

  NO   OCC          E(Eh)            E(eV)
   0   2.0000     -20.655628      -562.0682
   1   2.0000     -20.533408      -558.7424
   2   2.0000     -15.623497      -425.1370
   3   2.0000     -15.579335      -423.9352
   4   2.0000     -15.560023      -423.4097
   5   2.0000     -11.371512      -309.4346
   6   2.0000     -11.328399      -308.2614
   7   2.0000     -11.328394      -308.2613
   8   2.0000     -11.302644      -307.5606
   9   2.0000     -11.289250      -307.1961
  10   2.0000     -11.286714      -307.1271
  11   2.0000     -11.265711      -306.5556
  12   2.0000     -11.247279      -306.0540
  13   2.0000     -11.243868      -305.9612
  14   2.0000     -11.242038      -305.9114
  15   2.0000     -11.240217      -305.8618
  16   2.0000     -11.236401      -305.7580
  17   2.0000     -11.234027      -305.6934
  18   2.0000     -11.228648      -305.5470
  19   2.0000     -11.218800      -305.2791
  20   2.0000      -1.504408       -40.9370
  21   2.0000      -1.353318       -36.8257
  22   2.0000      -1.251603       -34.0578
  23   2.0000      -1.237870       -33.6842
  24   2.0000      -1.163952       -31.6727
  25   2.0000      -1.129958       -30.7477
  26   2.0000      -1.093993       -29.7691
  27   2.0000      -1.073534       -29.2124
  28   2.0000      -0.987415       -26.8689
  29   2.0000      -0.963843       -26.2275
  30   2.0000      -0.951071       -25.8800
  31   2.0000      -0.933914       -25.4131
  32   2.0000      -0.927883       -25.2490
  33   2.0000      -0.891418       -24.2567
  34   2.0000      -0.832315       -22.6484
  35   2.0000      -0.822612       -22.3844
  36   2.0000      -0.802444       -21.8356
  37   2.0000      -0.784817       -21.3559
  38   2.0000      -0.764249       -20.7963
  39   2.0000      -0.719992       -19.5920
  40   2.0000      -0.708760       -19.2863
  41   2.0000      -0.696284       -18.9469
  42   2.0000      -0.676562       -18.4102
  43   2.0000      -0.671657       -18.2767
  44   2.0000      -0.662142       -18.0178
  45   2.0000      -0.656028       -17.8514
  46   2.0000      -0.631694       -17.1893
  47   2.0000      -0.619123       -16.8472
  48   2.0000      -0.615342       -16.7443
  49   2.0000      -0.605947       -16.4887
  50   2.0000      -0.599612       -16.3163
  51   2.0000      -0.593064       -16.1381
  52   2.0000      -0.581784       -15.8311
  53   2.0000      -0.567532       -15.4433
  54   2.0000      -0.556874       -15.1533
  55   2.0000      -0.550727       -14.9861
  56   2.0000      -0.544801       -14.8248
  57   2.0000      -0.543177       -14.7806
  58   2.0000      -0.535426       -14.5697
  59   2.0000      -0.534014       -14.5312
  60   2.0000      -0.528293       -14.3756
  61   2.0000      -0.519900       -14.1472
  62   2.0000      -0.513297       -13.9675
  63   2.0000      -0.506677       -13.7874
  64   2.0000      -0.495620       -13.4865
  65   2.0000      -0.490663       -13.3516
  66   2.0000      -0.483675       -13.1615
  67   2.0000      -0.472358       -12.8535
  68   2.0000      -0.468032       -12.7358
  69   2.0000      -0.460409       -12.5284
  70   2.0000      -0.443325       -12.0635
  71   2.0000      -0.435818       -11.8592
  72   2.0000      -0.403365       -10.9761
  73   2.0000      -0.386820       -10.5259
  74   2.0000      -0.350949        -9.5498
  75   0.0000       0.115356         3.1390
  76   0.0000       0.140029         3.8104
  77   0.0000       0.151185         4.1139
  78   0.0000       0.173129         4.7111
  79   0.0000       0.183055         4.9812

MULLIKEN ATOMIC CHARGES
-----------------------
   0 C :    0.114860
   1 C :   -0.240559
   2 C :    0.060211
   3 C :    0.071597
   4 C :    0.178877
   5 O :   -0.395308
   6 C :    0.082296
   7 C :   -0.225258
   8 C :    0.107749
   9 C :    0.034567
  10 N :   -0.663571
  11 C :    0.306305
  12 C :    0.327331
  13 N :   -0.399230
  14 C :    0.191003
  15 C :   -0.149835
  16 C :   -0.031560
  17 C :   -0.054838
  18 N :   -0.087484
  19 O :   -0.401446
  20 H :    0.032574
  21 H :    0.038044
  22 H :    0.017685
  23 H :    0.028780
  24 H :    0.034806
  25 H :    0.034641
  26 H :    0.069055
  27 H :    0.070726
  28 H :    0.078340
  29 H :    0.064705
  30 H :    0.024306
  31 H :    0.022367
  32 H :    0.021837
  33 H :    0.038732
  34 H :    0.052696
  35 H :    0.042785
  36 H :    0.067381
  37 H :    0.074698
  38 H :    0.076449
  39 H :    0.085069
  40 H :    0.062797
  41 H :    0.069306
  42 H :    0.066514
Sum of atomic charges:    0.0000000

LOEWDIN ATOMIC CHARGES
----------------------
   0 C :   -0.029405
   1 C :    0.025821
   2 C :   -0.026050
   3 C :   -0.030246
   4 C :    0.163180
   5 O :   -0.254622
   6 C :   -0.032234
   7 C :    0.026293
   8 C :   -0.029018
   9 C :   -0.026964
  10 N :   -0.187227
  11 C :    0.070910
  12 C :    0.165732
  13 N :   -0.201965
  14 C :    0.062178
  15 C :   -0.037129
  16 C :   -0.015327
  17 C :   -0.014849
  18 N :   -0.104486
  19 O :   -0.096270
  20 H :    0.014575
  21 H :    0.016113
  22 H :    0.012409
  23 H :    0.010741
  24 H :    0.016473
  25 H :    0.021406
  26 H :    0.041357
  27 H :    0.037637
  28 H :    0.042832
  29 H :    0.039381
  30 H :    0.015833
  31 H :    0.013017
  32 H :    0.010772
  33 H :    0.015848
  34 H :    0.018960
  35 H :    0.026378
  36 H :    0.034961
  37 H :    0.042745
  38 H :    0.034603
  39 H :    0.031768
  40 H :    0.024845
  41 H :    0.025233
  42 H :    0.023790

  Mayer bond orders larger than 0.100000
B(  0-C ,  1-C ) :   0.9903 B(  0-C , 20-H ) :   0.9748 B(  0-C , 21-H ) :   0.9770
B(  0-C , 22-H ) :   0.9770 B(  1-C ,  2-C ) :   1.0197 B(  1-C ,  3-C ) :   0.9940
B(  1-C , 10-N ) :   0.8622 B(  2-C , 23-H ) :   0.9816 B(  2-C , 24-H ) :   0.9800
B(  2-C , 25-H ) :   0.9788 B(  3-C ,  4-C ) :   0.9691 B(  3-C , 26-H ) :   0.9626
B(  3-C , 27-H ) :   0.9537 B(  4-C ,  5-O ) :   2.0438 B(  4-C ,  6-C ) :   0.9632
B(  6-C ,  7-C ) :   0.9747 B(  6-C , 28-H ) :   0.9494 B(  6-C , 29-H ) :   0.9662
B(  7-C ,  8-C ) :   0.9905 B(  7-C ,  9-C ) :   1.0391 B(  7-C , 10-N ) :   0.8403
B(  8-C , 30-H ) :   0.9799 B(  8-C , 31-H ) :   0.9808 B(  8-C , 32-H ) :   0.9823
B(  9-C , 33-H ) :   0.9791 B(  9-C , 34-H ) :   0.9774 B(  9-C , 35-H ) :   0.9760
B( 10-N , 11-C ) :   0.9978 B( 11-C , 12-C ) :   0.9818 B( 11-C , 36-H ) :   0.9712
B( 11-C , 37-H ) :   0.9556 B( 12-C , 13-N ) :   1.6539 B( 12-C , 19-O ) :   1.0814
B( 13-N , 14-C ) :   1.2208 B( 14-C , 15-C ) :   0.9684 B( 14-C , 18-N ) :   1.7421
B( 15-C , 16-C ) :   0.9555 B( 15-C , 17-C ) :   0.9576 B( 15-C , 38-H ) :   0.9555
B( 16-C , 17-C ) :   0.9728 B( 16-C , 39-H ) :   0.9700 B( 16-C , 40-H ) :   0.9727
B( 17-C , 41-H ) :   0.9742 B( 17-C , 42-H ) :   0.9759 B( 18-N , 19-O ) :   0.8793

FINAL SINGLE POINT ENERGY      -893.705678633014

DIPOLE MOMENT
-------------
                                X             Y             Z
Electronic contribution:     -7.54802       0.70302      -0.43760
Nuclear contribution   :      7.11433      -1.25202       0.55282
                        -----------------------------------------
Total Dipole Moment    :     -0.43369      -0.54900       0.11523
                        -----------------------------------------
Magnitude (a.u.)       :      0.70906
Magnitude (Debye)      :      1.80229

Rotational constants in cm-1:     0.019534     0.006649     0.006414
Rotational constants in MHz :   585.608819   199.337298   192.290710

                             ****ORCA TERMINATED NORMALLY****
TOTAL RUN TIME: 0 days 0 hours 0 minutes 27 seconds 479 msec
