                         Program Version 5.0.3 -  RELEASE  -
|  1> !RHF def2-SVP TightSCF PAL16
|  2> *xyz 0 1
|  3> C 0.5016419318104248 1.6887775390776176 2.051994293882355
|  4> C 0.8978575465389773 0.6459376621850608 1.057874674497638
|  5> C 0.16445123326048378 0.10938390901470245 0.06863762719058973
|  6> N -1.1333837444301478 0.2142937457300117 -0.3548461477326086
|  7> C -2.228923301925684 0.7269989887146784 0.31704855239875707
|  8> O -2.2065700785763034 1.1460458125879658 1.4699050025866254
|  9> C -3.511855009548557 0.7359092425275023 -0.5633870179016338
| 10> C -3.561857326934299 2.1137093543615424 -1.2331332550161278
| 11> N -4.725391438796108 0.4171316705402398 0.23498871820614675
| 12> C -4.635083765209174 -0.9156602250831616 0.8418245561323882
| 13> C -5.954809622359386 0.5086967140436561 -0.5542142404207483
| 14> C 1.1079875601365061 -0.759178415856353 -0.707727981357437
| 15> O 0.754581716908954 -1.3419358006038387 -1.724128228500972
| 16> N 2.349410250193306 -0.6701421316120453 -0.07694004755252913
| 17> C 3.6088176689249996 -0.9124125449686542 -0.6844537736406551
| 18> C 4.77093935296179 -0.26618680861738636 -0.2339817057762448
| 19> C 6.011838965497822 -0.5093787810484647 -0.8306499947021572
| 20> C 6.110641742576045 -1.4017188602698727 -1.8933176649415024
| 21> C 4.968967942287782 -2.045776861268003 -2.3608265868410374
| 22> C 3.728604324249008 -1.8005804027320125 -1.7622717039006681
| 23> N 2.2238216409936036 0.16344792594531732 1.0734755941917944
| 24> C 2.6783373533905785 -0.4920028450060697 2.3160151772018627
| 25> H 1.380922086721587 2.2518397424316507 2.38951900050499
| 26> H 0.03856222959838579 1.23323687196088 2.9312800063473783
| 27> H -0.17360026208007334 2.429226040560321 1.6135861828304836
| 28> H -1.3067644207260356 -0.2822031228884619 -1.2256854009939617
| 29> H -3.401318576120556 -0.019162840583227578 -1.3527065690316167
| 30> H -2.5932831932967306 2.3721358463682463 -1.6767437969123955
| 31> H -3.803985107771179 2.899860062390149 -0.5091575784261285
| 32> H -4.30237774147959 2.145054591217362 -2.0382802189221323
| 33> H -5.532245280834464 -1.1259802561009769 1.4360131819010027
| 34> H -3.793320367157929 -0.9906689942439736 1.5372184294585565
| 35> H -4.530846294452385 -1.7053285809529513 0.08789973521820839
| 36> H -6.141266402026485 1.5354208862429208 -0.884227160907697
| 37> H -5.9299781132827425 -0.1470820785028919 -1.4317092724988474
| 38> H -6.824591982044011 0.23403016751125338 0.052630974972624006
| 39> H 4.724264861174498 0.4631995788224562 0.5706578043396687
| 40> H 6.897839725764911 0.006595946496002697 -0.4685162918757959
| 41> H 7.073298618438915 -1.5922946555133994 -2.3596197003138752
| 42> H 5.037951428263988 -2.7428282529983963 -3.1928940570639086
| 43> H 2.864507455882956 -2.3352882324036046 -2.1490080614071867
| 44> H 2.035620126797326 -1.345177537725347 2.5629238319036123
| 45> H 3.7063446864730607 -0.8557534499131216 2.2324732630391653
| 46> H 2.6542415802048094 0.2158093801632851 3.1513297208182127
| 47> *
| 48>
| 49>                          ****END OF INPUT****

CARTESIAN COORDINATES (ANGSTROEM)
---------------------------------
  C      0.501642    1.688778    2.051994
  C      0.897858    0.645938    1.057875
  C      0.164451    0.109384    0.068638
  N     -1.133384    0.214294   -0.354846
  C     -2.228923    0.726999    0.317049
  O     -2.206570    1.146046    1.469905
  C     -3.511855    0.735909   -0.563387
  C     -3.561857    2.113709   -1.233133
  N     -4.725391    0.417132    0.234989
  C     -4.635084   -0.915660    0.841825
  C     -5.954810    0.508697   -0.554214
  C      1.107988   -0.759178   -0.707728
  O      0.754582   -1.341936   -1.724128
  N      2.349410   -0.670142   -0.076940
  C      3.608818   -0.912413   -0.684454
  C      4.770939   -0.266187   -0.233982
  C      6.011839   -0.509379   -0.830650
  C      6.110642   -1.401719   -1.893318
  C      4.968968   -2.045777   -2.360827
  C      3.728604   -1.800580   -1.762272
  N      2.223822    0.163448    1.073476
  C      2.678337   -0.492003    2.316015
  H      1.380922    2.251840    2.389519
  H      0.038562    1.233237    2.931280
  H     -0.173600    2.429226    1.613586
  H     -1.306764   -0.282203   -1.225685
  H     -3.401319   -0.019163   -1.352707
  H     -2.593283    2.372136   -1.676744
  H     -3.803985    2.899860   -0.509158
  H     -4.302378    2.145055   -2.038280
  H     -5.532245   -1.125980    1.436013
  H     -3.793320   -0.990669    1.537218
  H     -4.530846   -1.705329    0.087900
  H     -6.141266    1.535421   -0.884227
  H     -5.929978   -0.147082   -1.431709
  H     -6.824592    0.234030    0.052631
  H      4.724265    0.463200    0.570658
  H      6.897840    0.006596   -0.468516
  H      7.073299   -1.592295   -2.359620
  H      5.037951   -2.742828   -3.192894
  H      2.864507   -2.335288   -2.149008
  H      2.035620   -1.345178    2.562924
  H      3.706345   -0.855753    2.232473
  H      2.654242    0.215809    3.151330

 Total Charge           Charge          ....    0
 Multiplicity           Mult            ....    1
 Number of Electrons    NEL             ....  162
 Basis Dimension        Dim             ....  418

ORBITAL ENERGIES
----------------

  NO   OCC          E(Eh)            E(eV)
   0   2.0000     -20.529253      -558.6294
   1   2.0000     -20.525528      -558.5280
   2   2.0000     -15.640680      -425.6045
   3   2.0000     -15.628907      -425.2842
   4   2.0000     -15.608475      -424.7282
   5   2.0000     -15.553053      -423.2201
   6   2.0000     -11.370951      -309.4193
   7   2.0000     -11.367413      -309.3230
   8   2.0000     -11.298099      -307.4369
   9   2.0000     -11.295101      -307.3553
  10   2.0000     -11.283152      -307.0302
  11   2.0000     -11.282318      -307.0075
  12   2.0000     -11.279185      -306.9222
  13   2.0000     -11.253977      -306.2363
  14   2.0000     -11.249072      -306.1028
  15   2.0000     -11.244520      -305.9790
  16   2.0000     -11.242776      -305.9315
  17   2.0000     -11.242054      -305.9118
  18   2.0000     -11.237077      -305.7764
  19   2.0000     -11.236665      -305.7652
  20   2.0000     -11.234971      -305.7191
  21   2.0000     -11.234398      -305.7035
  22   2.0000      -1.395344       -37.9693
  23   2.0000      -1.370239       -37.2861
  24   2.0000      -1.339303       -36.4443
  25   2.0000      -1.246640       -33.9228
  26   2.0000      -1.214769       -33.0555
  27   2.0000      -1.175863       -31.9968
  28   2.0000      -1.122439       -30.5431
  29   2.0000      -1.074845       -29.2480
  30   2.0000      -1.030972       -28.0542
  31   2.0000      -1.012575       -27.5536
  32   2.0000      -1.006805       -27.3966
  33   2.0000      -0.959345       -26.1051
  34   2.0000      -0.944534       -25.7021
  35   2.0000      -0.926183       -25.2027
  36   2.0000      -0.892316       -24.2811
  37   2.0000      -0.865706       -23.5570
  38   2.0000      -0.840172       -22.8622
  39   2.0000      -0.829308       -22.5666
  40   2.0000      -0.797340       -21.6967
  41   2.0000      -0.779331       -21.2067
  42   2.0000      -0.747214       -20.3327
  43   2.0000      -0.721106       -19.6223
  44   2.0000      -0.714939       -19.4545
  45   2.0000      -0.690244       -18.7825
  46   2.0000      -0.677419       -18.4335
  47   2.0000      -0.670613       -18.2483
  48   2.0000      -0.655826       -17.8459
  49   2.0000      -0.644508       -17.5380
  50   2.0000      -0.632858       -17.2209
  51   2.0000      -0.630803       -17.1650
  52   2.0000      -0.620057       -16.8726
  53   2.0000      -0.616626       -16.7793
  54   2.0000      -0.610200       -16.6044
  55   2.0000      -0.603084       -16.4107
  56   2.0000      -0.591872       -16.1057
  57   2.0000      -0.586158       -15.9502
  58   2.0000      -0.582577       -15.8527
  59   2.0000      -0.571638       -15.5551
  60   2.0000      -0.567590       -15.4449
  61   2.0000      -0.561356       -15.2753
  62   2.0000      -0.556820       -15.1518
  63   2.0000      -0.548938       -14.9374
  64   2.0000      -0.546536       -14.8720
  65   2.0000      -0.534674       -14.5492
  66   2.0000      -0.520342       -14.1592
  67   2.0000      -0.517742       -14.0885
  68   2.0000      -0.514938       -14.0122
  69   2.0000      -0.505335       -13.7509
  70   2.0000      -0.502884       -13.6842
  71   2.0000      -0.499114       -13.5816
  72   2.0000      -0.485388       -13.2081
  73   2.0000      -0.464928       -12.6513
  74   2.0000      -0.436339       -11.8734
  75   2.0000      -0.420646       -11.4464
  76   2.0000      -0.409482       -11.1426
  77   2.0000      -0.363057        -9.8793
  78   2.0000      -0.340927        -9.2771
  79   2.0000      -0.316105        -8.6016
  80   2.0000      -0.311964        -8.4890
  81   0.0000       0.107924         2.9368
  82   0.0000       0.127166         3.4604
  83   0.0000       0.140828         3.8321
  84   0.0000       0.161692         4.3999
  85   0.0000       0.177753         4.8369

MULLIKEN ATOMIC CHARGES
-----------------------
   0 C :    0.142362
   1 C :    0.046373
   2 C :   -0.106102
   3 N :   -0.386332
   4 C :    0.440560
   5 O :   -0.439110
   6 C :    0.040364
   7 C :    0.002640
   8 N :   -0.608241
   9 C :    0.140520
  10 C :    0.152257
  11 C :    0.638230
  12 O :   -0.456128
  13 N :   -0.479620
  14 C :    0.238857
  15 C :   -0.092697
  16 C :   -0.017079
  17 C :   -0.046722
  18 C :   -0.018532
  19 C :   -0.085265
  20 N :   -0.389508
  21 C :    0.173276
  22 H :    0.033548
  23 H :    0.069640
  24 H :    0.067686
  25 H :    0.186973
  26 H :    0.019828
  27 H :    0.040884
  28 H :    0.064085
  29 H :    0.048713
  30 H :    0.036874
  31 H :    0.057111
  32 H :   -0.000895
  33 H :    0.040379
  34 H :    0.001092
  35 H :    0.037355
  36 H :    0.049970
  37 H :    0.042840
  38 H :    0.039137
  39 H :    0.046292
  40 H :    0.076603
  41 H :    0.033783
  42 H :    0.062909
  43 H :    0.055090
Sum of atomic charges:   -0.0000000

LOEWDIN ATOMIC CHARGES
----------------------
   0 C :   -0.024245
   1 C :    0.038992
   2 C :   -0.058894
   3 N :   -0.045185
   4 C :    0.195542
   5 O :   -0.287976
   6 C :    0.032868
   7 C :   -0.025281
   8 N :   -0.192565
   9 C :    0.053172
  10 C :    0.056721
  11 C :    0.185665
  12 O :   -0.316781
  13 N :   -0.040710
  14 C :    0.050225
  15 C :   -0.051440
  16 C :   -0.015723
  17 C :   -0.042084
  18 C :   -0.011270
  19 C :   -0.034065
  20 N :   -0.062960
  21 C :    0.070217
  22 H :    0.021100
  23 H :    0.039392
  24 H :    0.040731
  25 H :    0.095110
  26 H :   -0.004053
  27 H :    0.023268
  28 H :    0.031417
  29 H :    0.020415
  30 H :    0.016776
  31 H :    0.018811
  32 H :   -0.009948
  33 H :    0.013481
  34 H :   -0.008587
  35 H :    0.017345
  36 H :    0.028233
  37 H :    0.028946
  38 H :    0.025252
  39 H :    0.030535
  40 H :    0.039114
  41 H :    0.008812
  42 H :    0.024456
  43 H :    0.025170

  Mayer bond orders larger than 0.100000
B(  0-C ,  1-C ) :   1.0137 B(  0-C , 22-H ) :   0.9704 B(  0-C , 23-H ) :   0.9620
B(  0-C , 24-H ) :   0.9653 B(  1-C ,  2-C ) :   1.7528 B(  1-C , 20-N ) :   0.9893
B(  2-C ,  3-N ) :   1.0335 B(  2-C , 11-C ) :   1.0519 B(  3-N ,  4-C ) :   1.0717
B(  3-N , 25-H ) :   0.9036 B(  4-C ,  5-O ) :   1.9517 B(  4-C ,  6-C ) :   0.9367
B(  6-C ,  7-C ) :   1.0160 B(  6-C ,  8-N ) :   0.9554 B(  6-C , 26-H ) :   0.9733
B(  7-C , 27-H ) :   0.9782 B(  7-C , 28-H ) :   0.9773 B(  7-C , 29-H ) :   0.9864
B(  8-N ,  9-C ) :   0.9368 B(  8-N , 10-C ) :   0.9444 B(  9-C , 30-H ) :   0.9922
B(  9-C , 31-H ) :   0.9869 B(  9-C , 32-H ) :   0.9742 B( 10-C , 33-H ) :   0.9905
B( 10-C , 34-H ) :   0.9754 B( 10-C , 35-H ) :   0.9920 B( 11-C , 12-O ) :   1.9065
B( 11-C , 13-N ) :   1.0076 B( 13-N , 14-C ) :   0.8980 B( 13-N , 20-N ) :   0.9817
B( 14-C , 15-C ) :   1.4024 B( 14-C , 19-C ) :   1.4158 B( 15-C , 16-C ) :   1.4202
B( 15-C , 36-H ) :   0.9953 B( 16-C , 17-C ) :   1.4141 B( 16-C , 37-H ) :   0.9984
B( 17-C , 18-C ) :   1.4056 B( 17-C , 38-H ) :   1.0012 B( 18-C , 19-C ) :   1.4237
B( 18-C , 39-H ) :   0.9986 B( 19-C , 40-H ) :   0.9945 B( 20-N , 21-C ) :   0.8714
B( 21-C , 41-H ) :   0.9800 B( 21-C , 42-H ) :   0.9880 B( 21-C , 43-H ) :   0.9881

FINAL SINGLE POINT ENERGY      -985.444890359804

DIPOLE MOMENT
-------------
                                X             Y             Z
Electronic contribution:     19.89391      -4.48641      -3.81976
Nuclear contribution   :    -19.61472       4.50657       3.97686
                        -----------------------------------------
Total Dipole Moment    :      0.27920       0.02016       0.15710
                        -----------------------------------------
Magnitude (a.u.)       :      0.32100
Magnitude (Debye)      :      0.81591

Rotational constants in cm-1:     0.023765     0.004007     0.003685
Rotational constants in MHz :   712.456540   120.134195   110.482602

                             ****ORCA TERMINATED NORMALLY****
TOTAL RUN TIME: 0 days 0 hours 0 minutes 26 seconds 132 msec
