                         Program Version 5.0.3 -  RELEASE  -
|  1> !RHF def2-SVP TightSCF PAL16
|  2> *xyz 0 1
|  3> C -2.3700693112734617 -1.130499091740145 3.2463876190731726
|  4> C -2.594446750395864 -0.5917427422149084 2.0412419389875747
|  5> C -1.6066049576325254 0.3029658034016871 1.334398548753085
|  6> C -0.9490463881912937 -0.3763639919845631 0.1061967296781004
|  7> C -1.9556596595228766 -0.4425181259365818 -1.062699192516089
|  8> N -1.4655713301058306 -1.2616097428435296 -2.178230569982467
|  9> C -2.311074234281361 -1.095911852135311 -3.3583453627096285
| 10> C -0.04667326536697111 -1.068688401547381 -2.4832365078739933
| 11> C 0.5165099702014635 0.22943329963472248 -1.915599312003843
| 12> C 0.4205634740645045 0.25785438756065515 -0.3600502549389193
| 13> O 1.5182589800292072 -0.6502465750798773 0.020119982589286933
| 14> C 1.7305291727494125 -1.048742321539909 1.2993907040101433
| 15> O 1.1325257642879565 -0.6630443663248645 2.2908035178664847
| 16> C 2.8424333565429674 -2.064302237755788 1.3399573322244138
| 17> C 2.3628225322921637 -3.412526301509927 0.840296073412338
| 18> C 0.7202077448766225 1.7176586889470564 0.03648967432788803
| 19> C 1.9573390096270078 2.1019278450897048 0.5833339409554712
| 20> C 2.226392857509813 3.4343170183069778 0.9130849731145454
| 21> C 1.2707039406526264 4.418436435996436 0.6869517881313218
| 22> C 0.04940682658480023 4.072238786991215 0.121149918549099
| 23> C -0.21807543440271462 2.740048420858513 -0.20718308285820838
| 24> H -3.110594178503009 -1.7641201633708352 3.7232014292645434
| 25> H -1.4373678720195002 -0.9575545526199277 3.777326356291493
| 26> H -3.541022649391498 -0.7921491751305826 1.5455441379215364
| 27> H -0.8514709756538116 0.6391326220078962 2.051009561086848
| 28> H -2.153828398111962 1.2022817713473317 1.0290889140452069
| 29> H -0.7478590157972429 -1.4211604967680451 0.38860356817500236
| 30> H -2.1944083635532228 0.5738319458453798 -1.4009412315170777
| 31> H -2.897908714952466 -0.8837146779896218 -0.7181487766603225
| 32> H -2.249106622880764 -0.08110807728732262 -3.767326700256011
| 33> H -3.35867261365554 -1.3084633736695233 -3.1174334016911227
| 34> H -2.0216523129065003 -1.8042186580119655 -4.142633025612443
| 35> H 0.14321711728221995 -1.1032719333545689 -3.5635685608037315
| 36> H 0.5055042231459111 -1.9190446379192951 -2.0645913719083255
| 37> H 1.5656700482500165 0.32000731501100177 -2.229485812604803
| 38> H -0.016671933618102097 1.0709148314332104 -2.377322348953258
| 39> H 3.6867599429130435 -1.6970719555776574 0.7465809425838758
| 40> H 3.193982603025042 -2.147201372068408 2.374355314309581
| 41> H 2.042389852006068 -3.3558263677568836 -0.2052329629051754
| 42> H 1.510777307858195 -3.7681583541330435 1.4292081530246776
| 43> H 3.1644391570729824 -4.153799662902388 0.9119975440053719
| 44> H 2.7434241664531522 1.3738798627107096 0.7610803281479253
| 45> H 3.187412190192914 3.7002028025984357 1.3460168426704484
| 46> H 1.4805545667233266 5.452746424066343 0.9448892128884202
| 47> H -0.6972785335985159 4.83884180136134 -0.06923809896122624
| 48> H -1.1767612885263574 2.5163391460048765 -0.6674384713321064
| 49> *
| 50>
| 51>                          ****END OF INPUT****

CARTESIAN COORDINATES (ANGSTROEM)
---------------------------------
  C     -2.370069   -1.130499    3.246388
  C     -2.594447   -0.591743    2.041242
  C     -1.606605    0.302966    1.334399
  C     -0.949046   -0.376364    0.106197
  C     -1.955660   -0.442518   -1.062699
  N     -1.465571   -1.261610   -2.178231
  C     -2.311074   -1.095912   -3.358345
  C     -0.046673   -1.068688   -2.483237
  C      0.516510    0.229433   -1.915599
  C      0.420563    0.257854   -0.360050
  O      1.518259   -0.650247    0.020120
  C      1.730529   -1.048742    1.299391
  O      1.132526   -0.663044    2.290804
  C      2.842433   -2.064302    1.339957
  C      2.362823   -3.412526    0.840296
  C      0.720208    1.717659    0.036490
  C      1.957339    2.101928    0.583334
  C      2.226393    3.434317    0.913085
  C      1.270704    4.418436    0.686952
  C      0.049407    4.072239    0.121150
  C     -0.218075    2.740048   -0.207183
  H     -3.110594   -1.764120    3.723201
  H     -1.437368   -0.957555    3.777326
  H     -3.541023   -0.792149    1.545544
  H     -0.851471    0.639133    2.051010
  H     -2.153828    1.202282    1.029089
  H     -0.747859   -1.421160    0.388604
  H     -2.194408    0.573832   -1.400941
  H     -2.897909   -0.883715   -0.718149
  H     -2.249107   -0.081108   -3.767327
  H     -3.358673   -1.308463   -3.117433
  H     -2.021652   -1.804219   -4.142633
  H      0.143217   -1.103272   -3.563569
  H      0.505504   -1.919045   -2.064591
  H      1.565670    0.320007   -2.229486
  H     -0.016672    1.070915   -2.377322
  H      3.686760   -1.697072    0.746581
  H      3.193983   -2.147201    2.374355
  H      2.042390   -3.355826   -0.205233
  H      1.510777   -3.768158    1.429208
  H      3.164439   -4.153800    0.911998
  H      2.743424    1.373880    0.761080
  H      3.187412    3.700203    1.346017
  H      1.480555    5.452746    0.944889
  H     -0.697279    4.838842   -0.069238
  H     -1.176761    2.516339   -0.667438

 Total Charge           Charge          ....    0
 Multiplicity           Mult            ....    1
 Number of Electrons    NEL             ....  156
 Basis Dimension        Dim             ....  419

ORBITAL ENERGIES
----------------

  NO   OCC          E(Eh)            E(eV)
   0   2.0000     -20.597157      -560.4771
   1   2.0000     -20.539995      -558.9217
   2   2.0000     -15.538268      -422.8178
   3   2.0000     -11.384985      -309.8012
   4   2.0000     -11.320696      -308.0518
   5   2.0000     -11.254789      -306.2584
   6   2.0000     -11.254046      -306.2382
   7   2.0000     -11.250301      -306.1362
   8   2.0000     -11.248539      -306.0883
   9   2.0000     -11.243171      -305.9422
  10   2.0000     -11.242998      -305.9375
  11   2.0000     -11.241909      -305.9079
  12   2.0000     -11.240569      -305.8714
  13   2.0000     -11.240389      -305.8665
  14   2.0000     -11.238810      -305.8236
  15   2.0000     -11.236378      -305.7574
  16   2.0000     -11.235482      -305.7330
  17   2.0000     -11.233481      -305.6786
  18   2.0000     -11.224472      -305.4334
  19   2.0000     -11.217122      -305.2334
  20   2.0000     -11.214905      -305.1731
  21   2.0000      -1.433127       -38.9974
  22   2.0000      -1.338837       -36.4316
  23   2.0000      -1.217755       -33.1368
  24   2.0000      -1.147593       -31.2276
  25   2.0000      -1.093325       -29.7509
  26   2.0000      -1.061435       -28.8831
  27   2.0000      -1.044589       -28.4247
  28   2.0000      -1.006263       -27.3818
  29   2.0000      -1.004978       -27.3468
  30   2.0000      -1.001043       -27.2398
  31   2.0000      -0.933380       -25.3986
  32   2.0000      -0.915141       -24.9022
  33   2.0000      -0.887346       -24.1459
  34   2.0000      -0.853569       -23.2268
  35   2.0000      -0.833893       -22.6914
  36   2.0000      -0.823309       -22.4034
  37   2.0000      -0.808822       -22.0092
  38   2.0000      -0.771150       -20.9841
  39   2.0000      -0.739670       -20.1275
  40   2.0000      -0.732011       -19.9190
  41   2.0000      -0.695836       -18.9347
  42   2.0000      -0.684996       -18.6397
  43   2.0000      -0.678792       -18.4709
  44   2.0000      -0.658492       -17.9185
  45   2.0000      -0.657452       -17.8902
  46   2.0000      -0.643884       -17.5210
  47   2.0000      -0.634248       -17.2588
  48   2.0000      -0.622822       -16.9479
  49   2.0000      -0.619410       -16.8550
  50   2.0000      -0.612027       -16.6541
  51   2.0000      -0.609345       -16.5811
  52   2.0000      -0.588396       -16.0111
  53   2.0000      -0.584324       -15.9003
  54   2.0000      -0.571455       -15.5501
  55   2.0000      -0.569608       -15.4998
  56   2.0000      -0.555826       -15.1248
  57   2.0000      -0.552179       -15.0256
  58   2.0000      -0.546016       -14.8578
  59   2.0000      -0.536185       -14.5903
  60   2.0000      -0.529004       -14.3949
  61   2.0000      -0.525852       -14.3092
  62   2.0000      -0.520819       -14.1722
  63   2.0000      -0.514787       -14.0081
  64   2.0000      -0.506229       -13.7752
  65   2.0000      -0.503540       -13.7020
  66   2.0000      -0.495887       -13.4938
  67   2.0000      -0.491454       -13.3731
  68   2.0000      -0.485151       -13.2016
  69   2.0000      -0.475434       -12.9372
  70   2.0000      -0.465592       -12.6694
  71   2.0000      -0.453386       -12.3373
  72   2.0000      -0.440880       -11.9969
  73   2.0000      -0.433580       -11.7983
  74   2.0000      -0.351177        -9.5560
  75   2.0000      -0.344788        -9.3822
  76   2.0000      -0.337457        -9.1827
  77   2.0000      -0.328580        -8.9411
  78   0.0000       0.125392         3.4121
  79   0.0000       0.132043         3.5931
  80   0.0000       0.157155         4.2764
  81   0.0000       0.165691         4.5087
  82   0.0000       0.181028         4.9260

MULLIKEN ATOMIC CHARGES
-----------------------
   0 C :   -0.066245
   1 C :   -0.155791
   2 C :    0.102023
   3 C :   -0.213489
   4 C :    0.297744
   5 N :   -0.681054
   6 C :    0.161990
   7 C :    0.247664
   8 C :    0.034101
   9 C :    0.184947
  10 O :   -0.605230
  11 C :    0.477570
  12 O :   -0.418001
  13 C :   -0.032944
  14 C :   -0.081062
  15 C :   -0.104990
  16 C :   -0.005575
  17 C :   -0.030047
  18 C :   -0.034861
  19 C :   -0.036225
  20 C :   -0.034590
  21 H :    0.044556
  22 H :    0.066005
  23 H :    0.037851
  24 H :    0.082457
  25 H :    0.022045
  26 H :    0.066503
  27 H :   -0.011229
  28 H :    0.031455
  29 H :   -0.001080
  30 H :    0.026679
  31 H :    0.033858
  32 H :    0.024582
  33 H :    0.031325
  34 H :    0.045677
  35 H :    0.035549
  36 H :    0.054834
  37 H :    0.060049
  38 H :    0.054621
  39 H :    0.050245
  40 H :    0.047935
  41 H :    0.036856
  42 H :    0.039337
  43 H :    0.039906
  44 H :    0.038597
  45 H :    0.035449
Sum of atomic charges:    0.0000000

LOEWDIN ATOMIC CHARGES
----------------------
   0 C :   -0.052036
   1 C :   -0.026431
   2 C :   -0.009819
   3 C :   -0.020665
   4 C :    0.069970
   5 N :   -0.208607
   6 C :    0.057512
   7 C :    0.062958
   8 C :   -0.016902
   9 C :    0.123401
  10 O :   -0.195379
  11 C :    0.218445
  12 O :   -0.268402
  13 C :   -0.038207
  14 C :   -0.026789
  15 C :   -0.021119
  16 C :   -0.017103
  17 C :   -0.020861
  18 C :   -0.029196
  19 C :   -0.023103
  20 C :   -0.023214
  21 H :    0.016748
  22 H :    0.025774
  23 H :    0.013789
  24 H :    0.031589
  25 H :    0.013014
  26 H :    0.028663
  27 H :   -0.013768
  28 H :    0.014570
  29 H :   -0.010764
  30 H :    0.011828
  31 H :    0.012139
  32 H :    0.013054
  33 H :    0.006644
  34 H :    0.027212
  35 H :    0.018693
  36 H :    0.030250
  37 H :    0.031999
  38 H :    0.022252
  39 H :    0.023975
  40 H :    0.022988
  41 H :    0.023738
  42 H :    0.027486
  43 H :    0.026099
  44 H :    0.027380
  45 H :    0.020196

  Mayer bond orders larger than 0.100000
B(  0-C ,  1-C ) :   2.0174 B(  0-C , 21-H ) :   0.9775 B(  0-C , 22-H ) :   0.9730
B(  1-C ,  2-C ) :   0.9979 B(  1-C , 23-H ) :   0.9780 B(  2-C ,  3-C ) :   1.0131
B(  2-C , 24-H ) :   0.9683 B(  2-C , 25-H ) :   0.9587 B(  3-C ,  4-C ) :   1.0298
B(  3-C ,  9-C ) :   0.9464 B(  3-C , 26-H ) :   0.9442 B(  4-C ,  5-N ) :   0.9320
B(  4-C , 27-H ) :   0.9596 B(  4-C , 28-H ) :   0.9682 B(  5-N ,  6-C ) :   0.9489
B(  5-N ,  7-C ) :   0.9040 B(  6-C , 29-H ) :   0.9765 B(  6-C , 30-H ) :   0.9893
B(  6-C , 31-H ) :   0.9922 B(  7-C ,  8-C ) :   1.0612 B(  7-C , 32-H ) :   0.9762
B(  7-C , 33-H ) :   0.9727 B(  8-C ,  9-C ) :   1.0300 B(  8-C , 34-H ) :   0.9596
B(  8-C , 35-H ) :   0.9526 B(  9-C , 10-O ) :   0.7244 B(  9-C , 15-C ) :   0.9719
B( 10-O , 11-C ) :   1.0259 B( 11-C , 12-O ) :   1.9539 B( 11-C , 13-C ) :   0.9689
B( 13-C , 14-C ) :   1.0329 B( 13-C , 36-H ) :   0.9643 B( 13-C , 37-H ) :   0.9735
B( 14-C , 38-H ) :   0.9841 B( 14-C , 39-H ) :   0.9840 B( 14-C , 40-H ) :   0.9875
B( 15-C , 16-C ) :   1.4511 B( 15-C , 20-C ) :   1.3959 B( 16-C , 17-C ) :   1.4227
B( 16-C , 41-H ) :   0.9938 B( 17-C , 18-C ) :   1.4197 B( 17-C , 42-H ) :   0.9987
B( 18-C , 19-C ) :   1.4052 B( 18-C , 43-H ) :   0.9997 B( 19-C , 20-C ) :   1.4486
B( 19-C , 44-H ) :   0.9999 B( 20-C , 45-H ) :   0.9989

FINAL SINGLE POINT ENERGY      -899.656270008054

DIPOLE MOMENT
-------------
                                X             Y             Z
Electronic contribution:      6.88598       9.55183       5.47593
Nuclear contribution   :     -6.52962      -9.44096      -6.42911
                        -----------------------------------------
Total Dipole Moment    :      0.35636       0.11087      -0.95318
                        -----------------------------------------
Magnitude (a.u.)       :      1.02364
Magnitude (Debye)      :      2.60188

Rotational constants in cm-1:     0.010523     0.008961     0.007692
Rotational constants in MHz :   315.467804   268.633307   230.604507

                             ****ORCA TERMINATED NORMALLY****
TOTAL RUN TIME: 0 days 0 hours 0 minutes 32 seconds 499 msec
