                         Program Version 5.0.3 -  RELEASE  -
|  1> !RHF def2-SVP TightSCF PAL16
|  2> *xyz 0 1
|  3> N 5.340641765197365 -0.5018723144329852 0.9941118663560675
|  4> C 4.801935762029946 0.7365539485670815 0.39498743533163133
|  5> C 3.353279824385126 0.5220105709814609 -0.059090385946349966
|  6> C 2.3848204187675073 0.17346522535073136 1.0772186891218143
|  7> C 0.9788491198197363 -0.007341560234469254 0.5623647591327317
|  8> C 0.08608167401824882 1.0622713930963854 0.5242944043433357
|  9> C -1.2103208736940194 0.8916056900260054 0.016154676391582686
| 10> C -1.6705022671631888 -0.33881354927966945 -0.48631284119228657
| 11> N -2.9606862312039803 -0.493758867648036 -0.9931111601800477
| 12> C -3.7118579799927858 0.6764745769233901 -1.4933110262378209
| 13> C -4.666565389560462 1.2518946398296331 -0.4425720347313824
| 14> Cl -6.178700079515094 0.30821975868069995 -0.32331478281976894
| 15> C -3.4966337046743 -1.822417615929743 -1.3498351277669915
| 16> C -3.862955949312346 -2.6492188864867305 -0.11442729845614982
| 17> Cl -4.418847007694232 -4.273251614714113 -0.6069149832942917
| 18> C -0.7490703719342546 -1.3983518284754592 -0.4277135415520919
| 19> C 0.5490884037266146 -1.2416199847854492 0.08102620944034658
| 20> C 4.972834029778783 1.9118934596411217 1.3687183194964083
| 21> O 5.762885833503612 1.9679544052138294 2.2998438007203776
| 22> O 4.218889313966079 2.9862983867388966 1.065616000101249
| 23> H 6.236608843820802 -0.28274375624776976 1.4405979145941263
| 24> H 5.538921123213186 -1.1750835896593976 0.2572170586277297
| 25> H 5.418107938318561 0.9809798232399352 -0.47934488471533493
| 26> H 3.3317957686728357 -0.2749509305505899 -0.8118839416948335
| 27> H 2.998075608975881 1.4223282616911255 -0.5715053489558272
| 28> H 2.386369435204967 0.9590508021274267 1.8384750379662331
| 29> H 2.696006775633358 -0.7418993450269953 1.588581698792702
| 30> H 0.38653613715924356 2.042027468559545 0.8904213789908628
| 31> H -1.8567400050148681 1.7638010265441346 0.041390918868943714
| 32> H -3.018517040750202 1.4607766986778887 -1.8227559179820605
| 33> H -4.267944884573002 0.4143195965151781 -2.403870604461486
| 34> H -4.214899293577271 1.2788476853572484 0.5545694647668968
| 35> H -4.955818624272798 2.2703833162450398 -0.7199253459151163
| 36> H -2.792614895059477 -2.3559276652129606 -1.9977165304361926
| 37> H -4.402055894469107 -1.7078318452149126 -1.9591046176743594
| 38> H -3.0173044179592536 -2.7845567909856883 0.5666518478028311
| 39> H -4.6758891260812305 -2.1865384816706483 0.44966067535668297
| 40> H -1.0034066709736045 -2.3891583102993232 -0.7930916701534737
| 41> H 1.2211053779667982 -2.098045417270643 0.09181807330964635
| 42> H 4.468497553308754 3.6422256201323195 1.7520818146606534
| 43> *
| 44>
| 45>                          ****END OF INPUT****

CARTESIAN COORDINATES (ANGSTROEM)
---------------------------------
  N      5.340642   -0.501872    0.994112
  C      4.801936    0.736554    0.394987
  C      3.353280    0.522011   -0.059090
  C      2.384820    0.173465    1.077219
  C      0.978849   -0.007342    0.562365
  C      0.086082    1.062271    0.524294
  C     -1.210321    0.891606    0.016155
  C     -1.670502   -0.338814   -0.486313
  N     -2.960686   -0.493759   -0.993111
  C     -3.711858    0.676475   -1.493311
  C     -4.666565    1.251895   -0.442572
  Cl    -6.178700    0.308220   -0.323315
  C     -3.496634   -1.822418   -1.349835
  C     -3.862956   -2.649219   -0.114427
  Cl    -4.418847   -4.273252   -0.606915
  C     -0.749070   -1.398352   -0.427714
  C      0.549088   -1.241620    0.081026
  C      4.972834    1.911893    1.368718
  O      5.762886    1.967954    2.299844
  O      4.218889    2.986298    1.065616
  H      6.236609   -0.282744    1.440598
  H      5.538921   -1.175084    0.257217
  H      5.418108    0.980980   -0.479345
  H      3.331796   -0.274951   -0.811884
  H      2.998076    1.422328   -0.571505
  H      2.386369    0.959051    1.838475
  H      2.696007   -0.741899    1.588582
  H      0.386536    2.042027    0.890421
  H     -1.856740    1.763801    0.041391
  H     -3.018517    1.460777   -1.822756
  H     -4.267945    0.414320   -2.403871
  H     -4.214899    1.278848    0.554569
  H     -4.955819    2.270383   -0.719925
  H     -2.792615   -2.355928   -1.997717
  H     -4.402056   -1.707832   -1.959105
  H     -3.017304   -2.784557    0.566652
  H     -4.675889   -2.186538    0.449661
  H     -1.003407   -2.389158   -0.793092
  H      1.221105   -2.098045    0.091818
  H      4.468498    3.642226    1.752082

 Total Charge           Charge          ....    0
 Multiplicity           Mult            ....    1
 Number of Electrons    NEL             ....  168
 Basis Dimension        Dim             ....  388

ORBITAL ENERGIES
----------------

  NO   OCC          E(Eh)            E(eV)
   0   2.0000    -104.785250     -2851.3516
   1   2.0000    -104.771308     -2850.9722
   2   2.0000     -20.617268      -561.0244
   3   2.0000     -20.551662      -559.2392
   4   2.0000     -15.581080      -423.9827
   5   2.0000     -15.551031      -423.1651
   6   2.0000     -11.398627      -310.1724
   7   2.0000     -11.302547      -307.5579
   8   2.0000     -11.292017      -307.2714
   9   2.0000     -11.289397      -307.2001
  10   2.0000     -11.287825      -307.1573
  11   2.0000     -11.287783      -307.1562
  12   2.0000     -11.281367      -306.9816
  13   2.0000     -11.241609      -305.8997
  14   2.0000     -11.241038      -305.8842
  15   2.0000     -11.238013      -305.8019
  16   2.0000     -11.236308      -305.7555
  17   2.0000     -11.234698      -305.7117
  18   2.0000     -11.230338      -305.5930
  19   2.0000     -11.227865      -305.5257
  20   2.0000     -10.548629      -287.0428
  21   2.0000     -10.534874      -286.6685
  22   2.0000      -8.023632      -218.3341
  23   2.0000      -8.020275      -218.2428
  24   2.0000      -8.020216      -218.2412
  25   2.0000      -8.009894      -217.9603
  26   2.0000      -8.006550      -217.8693
  27   2.0000      -8.006460      -217.8669
  28   2.0000      -1.458169       -39.6788
  29   2.0000      -1.341771       -36.5114
  30   2.0000      -1.253089       -34.0983
  31   2.0000      -1.183932       -32.2164
  32   2.0000      -1.145030       -31.1579
  33   2.0000      -1.135113       -30.8880
  34   2.0000      -1.121804       -30.5258
  35   2.0000      -1.059054       -28.8183
  36   2.0000      -1.014482       -27.6054
  37   2.0000      -1.008536       -27.4437
  38   2.0000      -0.994878       -27.0720
  39   2.0000      -0.956602       -26.0305
  40   2.0000      -0.921575       -25.0773
  41   2.0000      -0.866005       -23.5652
  42   2.0000      -0.847390       -23.0587
  43   2.0000      -0.833016       -22.6675
  44   2.0000      -0.822024       -22.3684
  45   2.0000      -0.787808       -21.4374
  46   2.0000      -0.774268       -21.0689
  47   2.0000      -0.717479       -19.5236
  48   2.0000      -0.712713       -19.3939
  49   2.0000      -0.698666       -19.0117
  50   2.0000      -0.683853       -18.6086
  51   2.0000      -0.676028       -18.3957
  52   2.0000      -0.647853       -17.6290
  53   2.0000      -0.641869       -17.4661
  54   2.0000      -0.634620       -17.2689
  55   2.0000      -0.630546       -17.1580
  56   2.0000      -0.628953       -17.1147
  57   2.0000      -0.618063       -16.8184
  58   2.0000      -0.616000       -16.7622
  59   2.0000      -0.595384       -16.2012
  60   2.0000      -0.592912       -16.1340
  61   2.0000      -0.581509       -15.8237
  62   2.0000      -0.575714       -15.6660
  63   2.0000      -0.565487       -15.3877
  64   2.0000      -0.564118       -15.3504
  65   2.0000      -0.560740       -15.2585
  66   2.0000      -0.532385       -14.4869
  67   2.0000      -0.530651       -14.4397
  68   2.0000      -0.520515       -14.1639
  69   2.0000      -0.514069       -13.9885
  70   2.0000      -0.502339       -13.6694
  71   2.0000      -0.498802       -13.5731
  72   2.0000      -0.489007       -13.3065
  73   2.0000      -0.482083       -13.1181
  74   2.0000      -0.476770       -12.9736
  75   2.0000      -0.454963       -12.3802
  76   2.0000      -0.447185       -12.1685
  77   2.0000      -0.439368       -11.9558
  78   2.0000      -0.428700       -11.6655
  79   2.0000      -0.423705       -11.5296
  80   2.0000      -0.413454       -11.2507
  81   2.0000      -0.400891       -10.9088
  82   2.0000      -0.340757        -9.2725
  83   2.0000      -0.288961        -7.8630
  84   0.0000       0.119537         3.2528
  85   0.0000       0.142207         3.8696
  86   0.0000       0.149614         4.0712
  87   0.0000       0.167836         4.5671
  88   0.0000       0.175639         4.7794

MULLIKEN ATOMIC CHARGES
-----------------------
   0 N :   -0.321630
   1 C :   -0.035271
   2 C :    0.012175
   3 C :    0.067108
   4 C :   -0.194506
   5 C :    0.016094
   6 C :   -0.134921
   7 C :    0.326921
   8 N :   -0.681839
   9 C :    0.163824
  10 C :    0.059683
  11 Cl:   -0.230773
  12 C :    0.196487
  13 C :    0.047339
  14 Cl:   -0.241986
  15 C :   -0.140105
  16 C :    0.014143
  17 C :    0.490945
  18 O :   -0.414720
  19 O :   -0.355107
  20 H :    0.136921
  21 H :    0.116461
  22 H :    0.061181
  23 H :    0.029253
  24 H :    0.046628
  25 H :    0.031521
  26 H :    0.052715
  27 H :    0.030594
  28 H :    0.016064
  29 H :    0.053483
  30 H :    0.057751
  31 H :    0.090302
  32 H :    0.075645
  33 H :    0.044212
  34 H :    0.054079
  35 H :    0.085112
  36 H :    0.081484
  37 H :    0.032084
  38 H :    0.031435
  39 H :    0.229216
Sum of atomic charges:    0.0000000

LOEWDIN ATOMIC CHARGES
----------------------
   0 N :   -0.135828
   1 C :    0.018111
   2 C :   -0.011738
   3 C :   -0.003566
   4 C :   -0.059456
   5 C :   -0.005869
   6 C :   -0.076040
   7 C :    0.059648
   8 N :   -0.157109
   9 C :    0.067300
  10 C :   -0.049386
  11 Cl:    0.006873
  12 C :    0.061885
  13 C :   -0.046300
  14 Cl:   -0.005027
  15 C :   -0.073133
  16 C :   -0.004834
  17 C :    0.214244
  18 O :   -0.282028
  19 O :   -0.106528
  20 H :    0.063140
  21 H :    0.056342
  22 H :    0.022865
  23 H :    0.017634
  24 H :    0.021398
  25 H :    0.016232
  26 H :    0.025047
  27 H :    0.026624
  28 H :    0.016342
  29 H :    0.022115
  30 H :    0.021711
  31 H :    0.024492
  32 H :    0.019982
  33 H :    0.009535
  34 H :    0.021677
  35 H :    0.019456
  36 H :    0.016878
  37 H :    0.022973
  38 H :    0.026942
  39 H :    0.117397

  Mayer bond orders larger than 0.100000
B(  0-N ,  1-C ) :   1.0210 B(  0-N , 20-H ) :   0.9549 B(  0-N , 21-H ) :   0.9656
B(  1-C ,  2-C ) :   1.0304 B(  1-C , 17-C ) :   0.9297 B(  1-C , 22-H ) :   0.9527
B(  2-C ,  3-C ) :   0.9940 B(  2-C , 23-H ) :   0.9696 B(  2-C , 24-H ) :   0.9650
B(  3-C ,  4-C ) :   1.0161 B(  3-C , 25-H ) :   0.9727 B(  3-C , 26-H ) :   0.9702
B(  4-C ,  5-C ) :   1.4139 B(  4-C , 16-C ) :   1.4153 B(  5-C ,  6-C ) :   1.4416
B(  5-C , 27-H ) :   1.0006 B(  6-C ,  7-C ) :   1.3640 B(  6-C , 28-H ) :   1.0023
B(  7-C ,  8-N ) :   0.9712 B(  7-C , 15-C ) :   1.3699 B(  8-N ,  9-C ) :   0.9266
B(  8-N , 12-C ) :   0.8982 B(  9-C , 10-C ) :   0.9957 B(  9-C , 29-H ) :   0.9739
B(  9-C , 30-H ) :   0.9769 B( 10-C , 11-Cl) :   0.9510 B( 10-C , 31-H ) :   0.9684
B( 10-C , 32-H ) :   0.9739 B( 12-C , 13-C ) :   1.0049 B( 12-C , 33-H ) :   0.9736
B( 12-C , 34-H ) :   0.9716 B( 13-C , 14-Cl) :   0.9459 B( 13-C , 35-H ) :   0.9705
B( 13-C , 36-H ) :   0.9612 B( 15-C , 16-C ) :   1.4396 B( 15-C , 37-H ) :   1.0030
B( 16-C , 38-H ) :   1.0010 B( 17-C , 18-O ) :   2.0011 B( 17-C , 19-O ) :   1.1154
B( 19-O , 39-H ) :   0.9387

FINAL SINGLE POINT ENERGY     -1718.540544449171

DIPOLE MOMENT
-------------
                                X             Y             Z
Electronic contribution:    -24.77314      -8.24614       0.32759
Nuclear contribution   :     25.39159       9.54134      -1.39696
                        -----------------------------------------
Total Dipole Moment    :      0.61845       1.29520      -1.06937
                        -----------------------------------------
Magnitude (a.u.)       :      1.78986
Magnitude (Debye)      :      4.54946

Rotational constants in cm-1:     0.017999     0.002924     0.002595
Rotational constants in MHz :   539.606111    87.655016    77.796730

                             ****ORCA TERMINATED NORMALLY****
TOTAL RUN TIME: 0 days 0 hours 0 minutes 19 seconds 923 msec
