                         Program Version 5.0.3 -  RELEASE  -
|  1> !RHF def2-SVP TightSCF PAL16
|  2> *xyz 0 1
|  3> C 0.6107657743414452 4.861133961388186 -0.4212873118284581
|  4> O 1.2654326115572374 3.598203628676625 -0.4298596686268359
|  5> C 0.5153167087089416 2.5073998395051507 -0.09212573450390511
|  6> C -0.8226401601455788 2.5169298754024676 0.2862232652400947
|  7> C -1.4781295870120863 1.316455213025725 0.5931644537241462
|  8> C -0.8079964524696234 0.08765517675032077 0.5339813007064476
|  9> C 0.5453834108281772 0.09467732282635453 0.19137355657379257
| 10> C 1.1963995851785556 1.2915641366959478 -0.14188923860069097
| 11> C 1.2249480870361127 -1.2165152907364876 0.17891770107466162
| 12> C 2.683911888438982 -1.3107854045934717 -0.06772782109378364
| 13> C 3.136809353938265 -2.028045142059227 -1.178198148120786
| 14> C 4.506948897426295 -2.1377041987321816 -1.4153447173834737
| 15> C 5.41707452130741 -1.5449680701949242 -0.5380612335716777
| 16> C 4.9619027151002735 -0.8497981943280387 0.5840164413467677
| 17> C 3.592751362310704 -0.7367746767982574 0.8271858088695072
| 18> N 0.5990729123628764 -2.3294694294797242 0.3819814475905631
| 19> C -0.7410824475253572 -2.361309101306987 0.6594115325280406
| 20> O -1.3094867720576455 -3.4431357671468925 0.797972941436444
| 21> N -1.4432513379570895 -1.1569580906931316 0.7894038455491938
| 22> C -2.8667711329672088 -1.2496087568661853 1.0964161322491506
| 23> C -3.6858760692298316 -1.3798425953691278 -0.15777507502455326
| 24> C -5.191918511838684 -1.339596394826457 -0.06897573346312315
| 25> C -4.4531443896592995 -0.22166717540696493 -0.7473937521969382
| 26> H -0.213214090294744 4.883616986745501 -1.1421444182450369
| 27> H 0.2635768203036862 5.117838995434406 0.5849549175320377
| 28> H 1.3403176403663666 5.617920561660555 -0.7252474455126822
| 29> H -1.3939594394082975 3.438004112512915 0.345890642437184
| 30> H -2.523468499354613 1.3856183540311422 0.8713758486015937
| 31> H 2.237211001340073 1.302260997714007 -0.45342712959082887
| 32> H 2.427395406293525 -2.5046456866590048 -1.8501553869952214
| 33> H 4.865366579524465 -2.6935907567661435 -2.27806109853097
| 34> H 6.484820137962471 -1.6373175971404226 -0.7223379780361034
| 35> H 5.675542319913138 -0.4057523573355728 1.2735078249902712
| 36> H 3.244168497059676 -0.21466242854960027 1.7140427933082938
| 37> H -3.0430481957111617 -2.141019953036678 1.7112310793114764
| 38> H -3.1856379694894974 -0.40956948314019276 1.7218432017774883
| 39> H -3.272139493346408 -2.1203385186032664 -0.8360979983779736
| 40> H -5.6525245417107595 -1.137637739995673 0.8914118383802403
| 41> H -5.751798247694633 -2.0310993702916993 -0.6893748502912402
| 42> H -4.510052075343184 -0.1570823424636692 -1.8286735610770104
| 43> H -4.448976818082353 0.7396153601511434 -0.25014827215619423
| 44> *
| 45>
| 46>                          ****END OF INPUT****

CARTESIAN COORDINATES (ANGSTROEM)
---------------------------------
  C      0.610766    4.861134   -0.421287
  O      1.265433    3.598204   -0.429860
  C      0.515317    2.507400   -0.092126
  C     -0.822640    2.516930    0.286223
  C     -1.478130    1.316455    0.593164
  C     -0.807996    0.087655    0.533981
  C      0.545383    0.094677    0.191374
  C      1.196400    1.291564   -0.141889
  C      1.224948   -1.216515    0.178918
  C      2.683912   -1.310785   -0.067728
  C      3.136809   -2.028045   -1.178198
  C      4.506949   -2.137704   -1.415345
  C      5.417075   -1.544968   -0.538061
  C      4.961903   -0.849798    0.584016
  C      3.592751   -0.736775    0.827186
  N      0.599073   -2.329469    0.381981
  C     -0.741082   -2.361309    0.659412
  O     -1.309487   -3.443136    0.797973
  N     -1.443251   -1.156958    0.789404
  C     -2.866771   -1.249609    1.096416
  C     -3.685876   -1.379843   -0.157775
  C     -5.191919   -1.339596   -0.068976
  C     -4.453144   -0.221667   -0.747394
  H     -0.213214    4.883617   -1.142144
  H      0.263577    5.117839    0.584955
  H      1.340318    5.617921   -0.725247
  H     -1.393959    3.438004    0.345891
  H     -2.523468    1.385618    0.871376
  H      2.237211    1.302261   -0.453427
  H      2.427395   -2.504646   -1.850155
  H      4.865367   -2.693591   -2.278061
  H      6.484820   -1.637318   -0.722338
  H      5.675542   -0.405752    1.273508
  H      3.244168   -0.214662    1.714043
  H     -3.043048   -2.141020    1.711231
  H     -3.185638   -0.409569    1.721843
  H     -3.272139   -2.120339   -0.836098
  H     -5.652525   -1.137638    0.891412
  H     -5.751798   -2.031099   -0.689375
  H     -4.510052   -0.157082   -1.828674
  H     -4.448977    0.739615   -0.250148

 Total Charge           Charge          ....    0
 Multiplicity           Mult            ....    1
 Number of Electrons    NEL             ....  162
 Basis Dimension        Dim             ....  412

ORBITAL ENERGIES
----------------

  NO   OCC          E(Eh)            E(eV)
   0   2.0000     -20.589091      -560.2577
   1   2.0000     -20.497922      -557.7768
   2   2.0000     -15.611526      -424.8112
   3   2.0000     -15.559887      -423.4060
   4   2.0000     -11.371203      -309.4262
   5   2.0000     -11.326303      -308.2044
   6   2.0000     -11.315293      -307.9048
   7   2.0000     -11.312007      -307.8154
   8   2.0000     -11.305342      -307.6340
   9   2.0000     -11.273023      -306.7546
  10   2.0000     -11.268842      -306.6408
  11   2.0000     -11.268014      -306.6183
  12   2.0000     -11.263097      -306.4845
  13   2.0000     -11.262259      -306.4617
  14   2.0000     -11.256107      -306.2942
  15   2.0000     -11.253142      -306.2136
  16   2.0000     -11.249973      -306.1273
  17   2.0000     -11.249070      -306.1028
  18   2.0000     -11.248011      -306.0739
  19   2.0000     -11.246578      -306.0350
  20   2.0000     -11.236016      -305.7475
  21   2.0000     -11.235045      -305.7211
  22   2.0000     -11.231141      -305.6149
  23   2.0000      -1.404139       -38.2086
  24   2.0000      -1.370585       -37.2955
  25   2.0000      -1.269525       -34.5455
  26   2.0000      -1.228316       -33.4242
  27   2.0000      -1.159913       -31.5628
  28   2.0000      -1.152468       -31.3603
  29   2.0000      -1.136603       -30.9285
  30   2.0000      -1.055117       -28.7112
  31   2.0000      -1.032514       -28.0961
  32   2.0000      -1.027902       -27.9706
  33   2.0000      -1.015237       -27.6260
  34   2.0000      -0.967503       -26.3271
  35   2.0000      -0.946911       -25.7668
  36   2.0000      -0.906272       -24.6609
  37   2.0000      -0.861727       -23.4488
  38   2.0000      -0.848808       -23.0972
  39   2.0000      -0.830442       -22.5975
  40   2.0000      -0.818040       -22.2600
  41   2.0000      -0.807341       -21.9689
  42   2.0000      -0.785565       -21.3763
  43   2.0000      -0.767672       -20.8894
  44   2.0000      -0.738343       -20.0913
  45   2.0000      -0.725741       -19.7484
  46   2.0000      -0.702706       -19.1216
  47   2.0000      -0.685022       -18.6404
  48   2.0000      -0.673744       -18.3335
  49   2.0000      -0.670375       -18.2418
  50   2.0000      -0.658926       -17.9303
  51   2.0000      -0.652995       -17.7689
  52   2.0000      -0.643354       -17.5066
  53   2.0000      -0.640997       -17.4424
  54   2.0000      -0.627710       -17.0809
  55   2.0000      -0.613545       -16.6954
  56   2.0000      -0.605528       -16.4773
  57   2.0000      -0.600686       -16.3455
  58   2.0000      -0.597656       -16.2630
  59   2.0000      -0.595141       -16.1946
  60   2.0000      -0.570937       -15.5360
  61   2.0000      -0.557466       -15.1694
  62   2.0000      -0.551558       -15.0087
  63   2.0000      -0.545993       -14.8572
  64   2.0000      -0.524677       -14.2772
  65   2.0000      -0.518235       -14.1019
  66   2.0000      -0.515041       -14.0150
  67   2.0000      -0.512402       -13.9432
  68   2.0000      -0.508891       -13.8476
  69   2.0000      -0.507139       -13.7999
  70   2.0000      -0.498804       -13.5731
  71   2.0000      -0.458053       -12.4643
  72   2.0000      -0.437311       -11.8998
  73   2.0000      -0.431896       -11.7525
  74   2.0000      -0.421167       -11.4605
  75   2.0000      -0.416938       -11.3455
  76   2.0000      -0.408734       -11.1222
  77   2.0000      -0.361001        -9.8233
  78   2.0000      -0.345844        -9.4109
  79   2.0000      -0.342812        -9.3284
  80   2.0000      -0.304254        -8.2792
  81   0.0000       0.053001         1.4422
  82   0.0000       0.110601         3.0096
  83   0.0000       0.120093         3.2679
  84   0.0000       0.136345         3.7101
  85   0.0000       0.164170         4.4673

MULLIKEN ATOMIC CHARGES
-----------------------
   0 C :    0.222880
   1 O :   -0.549011
   2 C :    0.306664
   3 C :   -0.087305
   4 C :   -0.094326
   5 C :    0.339815
   6 C :   -0.176007
   7 C :   -0.005362
   8 C :    0.207598
   9 C :   -0.101715
  10 C :    0.028900
  11 C :   -0.038145
  12 C :   -0.031319
  13 C :   -0.037852
  14 C :   -0.001437
  15 N :   -0.343905
  16 C :    0.611126
  17 O :   -0.440418
  18 N :   -0.669353
  19 C :    0.298275
  20 C :   -0.239104
  21 C :   -0.062838
  22 C :   -0.058774
  23 H :    0.034258
  24 H :    0.033435
  25 H :    0.056241
  26 H :    0.044101
  27 H :    0.037252
  28 H :    0.075178
  29 H :    0.052463
  30 H :    0.047789
  31 H :    0.046919
  32 H :    0.046595
  33 H :    0.046957
  34 H :    0.080949
  35 H :    0.024794
  36 H :    0.075037
  37 H :    0.050355
  38 H :    0.063667
  39 H :    0.060807
  40 H :    0.044814
Sum of atomic charges:    0.0000000

LOEWDIN ATOMIC CHARGES
----------------------
   0 C :    0.133221
   1 O :   -0.199227
   2 C :    0.068257
   3 C :   -0.034798
   4 C :   -0.041959
   5 C :    0.079937
   6 C :   -0.086230
   7 C :    0.002199
   8 C :    0.130006
   9 C :   -0.042525
  10 C :    0.007439
  11 C :   -0.020124
  12 C :   -0.016608
  13 C :   -0.022634
  14 C :   -0.009507
  15 N :   -0.155858
  16 C :    0.181714
  17 O :   -0.312814
  18 N :   -0.104164
  19 C :    0.090263
  20 C :   -0.039977
  21 C :   -0.030232
  22 C :   -0.032645
  23 H :    0.008311
  24 H :    0.007767
  25 H :    0.023745
  26 H :    0.033377
  27 H :    0.029190
  28 H :    0.044987
  29 H :    0.035699
  30 H :    0.030028
  31 H :    0.029010
  32 H :    0.029372
  33 H :    0.030545
  34 H :    0.037030
  35 H :    0.012933
  36 H :    0.029746
  37 H :    0.017275
  38 H :    0.023155
  39 H :    0.021922
  40 H :    0.012176

  Mayer bond orders larger than 0.100000
B(  0-C ,  1-O ) :   0.8683 B(  0-C , 23-H ) :   0.9842 B(  0-C , 24-H ) :   0.9843
B(  0-C , 25-H ) :   0.9929 B(  1-O ,  2-C ) :   1.0014 B(  2-C ,  3-C ) :   1.3345
B(  2-C ,  7-C ) :   1.4298 B(  3-C ,  4-C ) :   1.4189 B(  3-C , 26-H ) :   1.0040
B(  4-C ,  5-C ) :   1.3916 B(  4-C , 27-H ) :   1.0038 B(  5-C ,  6-C ) :   1.3545
B(  5-C , 18-N ) :   0.9742 B(  6-C ,  7-C ) :   1.3800 B(  6-C ,  8-C ) :   1.0210
B(  7-C , 28-H ) :   1.0003 B(  8-C ,  9-C ) :   0.9909 B(  8-C , 15-N ) :   1.8639
B(  9-C , 10-C ) :   1.4276 B(  9-C , 14-C ) :   1.4096 B( 10-C , 11-C ) :   1.4164
B( 10-C , 29-H ) :   1.0007 B( 11-C , 12-C ) :   1.4125 B( 11-C , 30-H ) :   0.9986
B( 12-C , 13-C ) :   1.4149 B( 12-C , 31-H ) :   0.9995 B( 13-C , 14-C ) :   1.4254
B( 13-C , 32-H ) :   0.9990 B( 14-C , 33-H ) :   1.0015 B( 15-N , 16-C ) :   1.1237
B( 16-C , 17-O ) :   1.9368 B( 16-C , 18-N ) :   1.0146 B( 18-N , 19-C ) :   0.8674
B( 19-C , 20-C ) :   1.0058 B( 19-C , 34-H ) :   0.9612 B( 19-C , 35-H ) :   0.9781
B( 20-C , 21-C ) :   0.9521 B( 20-C , 22-C ) :   0.9461 B( 20-C , 36-H ) :   0.9623
B( 21-C , 22-C ) :   0.9699 B( 21-C , 37-H ) :   0.9785 B( 21-C , 38-H ) :   0.9759
B( 22-C , 39-H ) :   0.9753 B( 22-C , 40-H ) :   0.9759

FINAL SINGLE POINT ENERGY      -987.835632632863

DIPOLE MOMENT
-------------
                                X             Y             Z
Electronic contribution:     11.45955      -8.28968       2.50192
Nuclear contribution   :    -11.43110      11.20607      -2.76717
                        -----------------------------------------
Total Dipole Moment    :      0.02845       2.91639      -0.26524
                        -----------------------------------------
Magnitude (a.u.)       :      2.92857
Magnitude (Debye)      :      7.44382

Rotational constants in cm-1:     0.011035     0.006368     0.004311
Rotational constants in MHz :   330.820947   190.910924   129.250305

                             ****ORCA TERMINATED NORMALLY****
TOTAL RUN TIME: 0 days 0 hours 0 minutes 26 seconds 807 msec
