                         Program Version 5.0.3 -  RELEASE  -
|  1> !RHF def2-SVP TightSCF PAL16
|  2> *xyz 0 1
|  3> C -1.8666488650020372 3.6929686469639336 0.034430918401327185
|  4> C -1.9043104870238454 2.4119423227729837 0.4242968576407142
|  5> C -1.9745602310587906 1.23675125724293 -0.5105921998332453
|  6> C -0.7654959040190343 0.33030754370994575 -0.38160097988903185
|  7> C 0.39023312672845845 0.6370715362656172 -1.1472478328230375
|  8> C 1.5422790936197655 -0.14546973811498606 -1.0646856445938644
|  9> O 2.7030775137497445 0.0529962263923367 -1.7535360387162444
| 10> C 2.7587345711768414 1.1806079899978181 -2.6163853754205637
| 11> C 1.5060202855172828 -1.2273540533106702 -0.20131741370592568
| 12> C 0.3945721010467468 -1.5363366489300165 0.5610677418725208
| 13> C -0.7624169381913724 -0.772731753549845 0.5004273428671676
| 14> O -1.915723322183237 -0.9673492865628388 1.2075819011420592
| 15> C -1.9597696832159044 -2.0453392880922348 2.1316329792071853
| 16> O 0.6155185989790528 -2.6423348198867798 1.3301175606548123
| 17> C 1.9643028631833956 -2.986719341047836 0.971838921941282
| 18> O 2.5377968501779242 -2.0991030292509536 0.004077017136609924
| 19> H -1.8803080897280469 3.972797171509071 -1.0139942347780577
| 20> H -1.821380088195441 4.492739044310751 0.7674258076467927
| 21> H -1.8954726065578604 2.1816093528866984 1.488230229548102
| 22> H -2.8983404432596043 0.6782224374319912 -0.3189596325364858
| 23> H -2.057948880695457 1.5718427813995717 -1.5529965246915927
| 24> H 0.35184775163799015 1.5053446134908461 -1.7988963924689327
| 25> H 3.7513397390564833 1.2012415134737533 -3.0765426364601387
| 26> H 2.6318567825071475 2.113370315263442 -2.056882071345684
| 27> H 2.0206456899238026 1.0984493431240723 -3.4210780604313107
| 28> H -1.2133069258077769 -1.9219540066306149 2.922655584219416
| 29> H -1.8602849411070634 -3.008735339271517 1.621806651505813
| 30> H -2.9446600330925747 -2.030510036893787 2.6090178479536563
| 31> H 1.969909331719699 -4.0044129620677635 0.5649211782497263
| 32> H 2.58249314010839 -2.969911792621098 1.876754976892578
| 33> *
| 34>
| 35>                          ****END OF INPUT****

CARTESIAN COORDINATES (ANGSTROEM)
---------------------------------
  C     -1.866649    3.692969    0.034431
  C     -1.904310    2.411942    0.424297
  C     -1.974560    1.236751   -0.510592
  C     -0.765496    0.330308   -0.381601
  C      0.390233    0.637072   -1.147248
  C      1.542279   -0.145470   -1.064686
  O      2.703078    0.052996   -1.753536
  C      2.758735    1.180608   -2.616385
  C      1.506020   -1.227354   -0.201317
  C      0.394572   -1.536337    0.561068
  C     -0.762417   -0.772732    0.500427
  O     -1.915723   -0.967349    1.207582
  C     -1.959770   -2.045339    2.131633
  O      0.615519   -2.642335    1.330118
  C      1.964303   -2.986719    0.971839
  O      2.537797   -2.099103    0.004077
  H     -1.880308    3.972797   -1.013994
  H     -1.821380    4.492739    0.767426
  H     -1.895473    2.181609    1.488230
  H     -2.898340    0.678222   -0.318960
  H     -2.057949    1.571843   -1.552997
  H      0.351848    1.505345   -1.798896
  H      3.751340    1.201242   -3.076543
  H      2.631857    2.113370   -2.056882
  H      2.020646    1.098449   -3.421078
  H     -1.213307   -1.921954    2.922656
  H     -1.860285   -3.008735    1.621807
  H     -2.944660   -2.030510    2.609018
  H      1.969909   -4.004413    0.564921
  H      2.582493   -2.969912    1.876755

 Total Charge           Charge          ....    0
 Multiplicity           Mult            ....    1
 Number of Electrons    NEL             ....  118
 Basis Dimension        Dim             ....  294

ORBITAL ENERGIES
----------------

  NO   OCC          E(Eh)            E(eV)
   0   2.0000     -20.601751      -560.6021
   1   2.0000     -20.595078      -560.4206
   2   2.0000     -20.576310      -559.9099
   3   2.0000     -20.575324      -559.8830
   4   2.0000     -11.359233      -309.1004
   5   2.0000     -11.303438      -307.5822
   6   2.0000     -11.301551      -307.5308
   7   2.0000     -11.300651      -307.5063
   8   2.0000     -11.294469      -307.3381
   9   2.0000     -11.292076      -307.2730
  10   2.0000     -11.285124      -307.0838
  11   2.0000     -11.246184      -306.0242
  12   2.0000     -11.239180      -305.8336
  13   2.0000     -11.235239      -305.7264
  14   2.0000     -11.233222      -305.6715
  15   2.0000     -11.223685      -305.4120
  16   2.0000      -1.468952       -39.9722
  17   2.0000      -1.393446       -37.9176
  18   2.0000      -1.389539       -37.8113
  19   2.0000      -1.365220       -37.1495
  20   2.0000      -1.145591       -31.1731
  21   2.0000      -1.070294       -29.1242
  22   2.0000      -1.017346       -27.6834
  23   2.0000      -1.013013       -27.5655
  24   2.0000      -0.953621       -25.9493
  25   2.0000      -0.936454       -25.4822
  26   2.0000      -0.909488       -24.7484
  27   2.0000      -0.895160       -24.3585
  28   2.0000      -0.830569       -22.6009
  29   2.0000      -0.820093       -22.3159
  30   2.0000      -0.750973       -20.4350
  31   2.0000      -0.733740       -19.9661
  32   2.0000      -0.719921       -19.5901
  33   2.0000      -0.712786       -19.3959
  34   2.0000      -0.694473       -18.8976
  35   2.0000      -0.682433       -18.5699
  36   2.0000      -0.656244       -17.8573
  37   2.0000      -0.654425       -17.8078
  38   2.0000      -0.638477       -17.3738
  39   2.0000      -0.624109       -16.9829
  40   2.0000      -0.615135       -16.7387
  41   2.0000      -0.602369       -16.3913
  42   2.0000      -0.592378       -16.1194
  43   2.0000      -0.576595       -15.6900
  44   2.0000      -0.574788       -15.6408
  45   2.0000      -0.563424       -15.3315
  46   2.0000      -0.554902       -15.0997
  47   2.0000      -0.551879       -15.0174
  48   2.0000      -0.546104       -14.8602
  49   2.0000      -0.511352       -13.9146
  50   2.0000      -0.503049       -13.6887
  51   2.0000      -0.499426       -13.5901
  52   2.0000      -0.496257       -13.5039
  53   2.0000      -0.492353       -13.3976
  54   2.0000      -0.487448       -13.2641
  55   2.0000      -0.422871       -11.5069
  56   2.0000      -0.358870        -9.7653
  57   2.0000      -0.310467        -8.4482
  58   2.0000      -0.292012        -7.9461
  59   0.0000       0.132705         3.6111
  60   0.0000       0.158689         4.3181
  61   0.0000       0.180055         4.8995
  62   0.0000       0.185335         5.0432
  63   0.0000       0.187970         5.1149

MULLIKEN ATOMIC CHARGES
-----------------------
   0 C :   -0.086300
   1 C :   -0.112593
   2 C :    0.150327
   3 C :   -0.217021
   4 C :   -0.120851
   5 C :    0.293944
   6 O :   -0.551938
   7 C :    0.226671
   8 C :    0.227893
   9 C :    0.187570
  10 C :    0.270240
  11 O :   -0.577369
  12 C :    0.247938
  13 O :   -0.557781
  14 C :    0.560042
  15 O :   -0.521105
  16 H :    0.039943
  17 H :    0.052206
  18 H :    0.052430
  19 H :    0.062865
  20 H :    0.031160
  21 H :    0.024584
  22 H :    0.051900
  23 H :    0.034554
  24 H :    0.031526
  25 H :    0.037652
  26 H :    0.039043
  27 H :    0.039561
  28 H :    0.041506
  29 H :    0.041404
Sum of atomic charges:   -0.0000000

LOEWDIN ATOMIC CHARGES
----------------------
   0 C :   -0.071550
   1 C :   -0.006462
   2 C :   -0.000204
   3 C :   -0.039989
   4 C :   -0.066645
   5 C :    0.060169
   6 O :   -0.192435
   7 C :    0.134535
   8 C :    0.034394
   9 C :    0.020727
  10 C :    0.050085
  11 O :   -0.199346
  12 C :    0.133252
  13 O :   -0.195039
  14 C :    0.285083
  15 O :   -0.182832
  16 H :    0.014737
  17 H :    0.020410
  18 H :    0.024997
  19 H :    0.033741
  20 H :    0.022969
  21 H :    0.028113
  22 H :    0.021807
  23 H :    0.008576
  24 H :    0.007240
  25 H :    0.010257
  26 H :    0.010599
  27 H :    0.015778
  28 H :    0.008541
  29 H :    0.008491

  Mayer bond orders larger than 0.100000
B(  0-C ,  1-C ) :   2.0026 B(  0-C , 16-H ) :   0.9793 B(  0-C , 17-H ) :   0.9773
B(  1-C ,  2-C ) :   0.9989 B(  1-C , 18-H ) :   0.9768 B(  2-C ,  3-C ) :   0.9958
B(  2-C , 19-H ) :   0.9573 B(  2-C , 20-H ) :   0.9790 B(  3-C ,  4-C ) :   1.4008
B(  3-C , 10-C ) :   1.4363 B(  4-C ,  5-C ) :   1.3603 B(  4-C , 21-H ) :   1.0230
B(  5-C ,  6-O ) :   1.0249 B(  5-C ,  8-C ) :   1.4204 B(  6-O ,  7-C ) :   0.8725
B(  7-C , 22-H ) :   0.9926 B(  7-C , 23-H ) :   0.9848 B(  7-C , 24-H ) :   0.9847
B(  8-C ,  9-C ) :   1.3612 B(  8-C , 15-O ) :   0.9645 B(  9-C , 10-C ) :   1.3353
B(  9-C , 13-O ) :   0.9384 B( 10-C , 11-O ) :   1.0281 B( 11-O , 12-C ) :   0.8506
B( 12-C , 25-H ) :   0.9880 B( 12-C , 26-H ) :   0.9885 B( 12-C , 27-H ) :   0.9925
B( 13-O , 14-C ) :   0.8867 B( 14-C , 15-O ) :   0.9103 B( 14-C , 28-H ) :   0.9839
B( 14-C , 29-H ) :   0.9839

FINAL SINGLE POINT ENERGY      -761.345944585184

DIPOLE MOMENT
-------------
                                X             Y             Z
Electronic contribution:      6.00924      -9.08946       1.06884
Nuclear contribution   :     -6.06835       9.02150      -1.03098
                        -----------------------------------------
Total Dipole Moment    :     -0.05912      -0.06796       0.03786
                        -----------------------------------------
Magnitude (a.u.)       :      0.09771
Magnitude (Debye)      :      0.24835

Rotational constants in cm-1:     0.020006     0.016223     0.009394
Rotational constants in MHz :   599.755776   486.348302   281.634299

                             ****ORCA TERMINATED NORMALLY****
TOTAL RUN TIME: 0 days 0 hours 0 minutes 11 seconds 256 msec
