                         Program Version 5.0.3 -  RELEASE  -
|  1> !RHF def2-SVP TightSCF PAL16
|  2> *xyz 0 1
|  3> C -1.7756903247997846 -0.15469549632785554 1.709039991375247
|  4> C -1.2361961912144197 1.2276340527874872 1.3213240200518204
|  5> C -0.7546778379064752 1.9202647620568054 2.6131871039494756
|  6> C -2.3542925133437347 2.073419435719015 0.7004309998519993
|  7> C -0.04025162435561246 1.1539503513585676 0.3384078546826884
|  8> O 0.8518916947670004 2.010909617091898 0.39006370057311246
|  9> C 0.0036976006154522166 0.030863578554836065 -0.7202917191086591
| 10> O 1.297366262355449 -0.1142402964145033 -1.3228589304701093
| 11> C 2.049476625727757 -1.043576376819389 -0.6601556036631898
| 12> C 1.992582387855583 -2.3789659496762168 -1.0577742787779223
| 13> C 2.7747140552137246 -3.326734199249609 -0.39598391658008997
| 14> C 3.6167907993904485 -2.926750987898425 0.6426089492966556
| 15> Cl 4.578395960067414 -4.096337283521164 1.4590781644039374
| 16> C 3.6909536254095405 -1.5851217497754815 1.0185810527907437
| 17> C 2.9098954966051895 -0.6361601228822142 0.35737118074979474
| 18> N -0.9274668659399273 0.3089780587390602 -1.808897078772495
| 19> C -0.9331076732509256 1.4044715167293038 -2.6306946837388763
| 20> C -1.9997464219468557 1.2093804293042747 -3.475694984447774
| 21> N -2.6301403978062132 0.024452100348186248 -3.1948785887029953
| 22> C -1.9492741176859807 -0.5070372983264855 -2.205778480136539
| 23> H -0.9718606270279568 -0.806249387902409 2.070108469507227
| 24> H -2.5269853040332158 -0.07875814060870705 2.5036194989128546
| 25> H -2.2582280428827364 -0.6562120680858794 0.8641256037795818
| 26> H -1.5546921676172956 1.9738400268891765 3.360349465084065
| 27> H 0.08720023275406719 1.3780894033367568 3.0595108226752266
| 28> H -0.41897068463798637 2.945689938012297 2.4193625553956135
| 29> H -2.8217687720684026 1.5672478293219916 -0.1491152214476966
| 30> H -3.1460810869463427 2.2799537907393628 1.4294724518958761
| 31> H -1.971173600702834 3.034447560636933 0.33881836834872564
| 32> H -0.30840975716421515 -0.9156553779424442 -0.26457870041503145
| 33> H 1.3549735117068065 -2.682156032125274 -1.8840171421896
| 34> H 2.733412880235143 -4.369465258281619 -0.7000732834880609
| 35> H 4.361292086167122 -1.2714046410830069 1.81463901117156
| 36> H 2.9849625931809483 0.41429922113716994 0.6298447895385693
| 37> H -0.20303540342336818 2.1996120901229266 -2.5504804454109093
| 38> H -2.344412600000602 1.8561155907067473 -4.2725574215598545
| 39> H -2.1611437972965124 -1.4640986866716728 -1.7461135751250783
| 40> *
| 41>
| 42>                          ****END OF INPUT****

CARTESIAN COORDINATES (ANGSTROEM)
---------------------------------
  C     -1.775690   -0.154695    1.709040
  C     -1.236196    1.227634    1.321324
  C     -0.754678    1.920265    2.613187
  C     -2.354293    2.073419    0.700431
  C     -0.040252    1.153950    0.338408
  O      0.851892    2.010910    0.390064
  C      0.003698    0.030864   -0.720292
  O      1.297366   -0.114240   -1.322859
  C      2.049477   -1.043576   -0.660156
  C      1.992582   -2.378966   -1.057774
  C      2.774714   -3.326734   -0.395984
  C      3.616791   -2.926751    0.642609
  Cl     4.578396   -4.096337    1.459078
  C      3.690954   -1.585122    1.018581
  C      2.909895   -0.636160    0.357371
  N     -0.927467    0.308978   -1.808897
  C     -0.933108    1.404472   -2.630695
  C     -1.999746    1.209380   -3.475695
  N     -2.630140    0.024452   -3.194879
  C     -1.949274   -0.507037   -2.205778
  H     -0.971861   -0.806249    2.070108
  H     -2.526985   -0.078758    2.503619
  H     -2.258228   -0.656212    0.864126
  H     -1.554692    1.973840    3.360349
  H      0.087200    1.378089    3.059511
  H     -0.418971    2.945690    2.419363
  H     -2.821769    1.567248   -0.149115
  H     -3.146081    2.279954    1.429472
  H     -1.971174    3.034448    0.338818
  H     -0.308410   -0.915655   -0.264579
  H      1.354974   -2.682156   -1.884017
  H      2.733413   -4.369465   -0.700073
  H      4.361292   -1.271405    1.814639
  H      2.984963    0.414299    0.629845
  H     -0.203035    2.199612   -2.550480
  H     -2.344413    1.856116   -4.272557
  H     -2.161144   -1.464099   -1.746114

 Total Charge           Charge          ....    0
 Multiplicity           Mult            ....    1
 Number of Electrons    NEL             ....  154
 Basis Dimension        Dim             ....  369

ORBITAL ENERGIES
----------------

  NO   OCC          E(Eh)            E(eV)
   0   2.0000    -104.801193     -2851.7855
   1   2.0000     -20.598253      -560.5070
   2   2.0000     -20.575924      -559.8994
   3   2.0000     -15.640326      -425.5949
   4   2.0000     -15.551673      -423.1825
   5   2.0000     -11.379353      -309.6479
   6   2.0000     -11.364618      -309.2470
   7   2.0000     -11.316979      -307.9507
   8   2.0000     -11.310353      -307.7704
   9   2.0000     -11.309988      -307.7604
  10   2.0000     -11.272028      -306.7275
  11   2.0000     -11.271694      -306.7184
  12   2.0000     -11.268420      -306.6293
  13   2.0000     -11.266711      -306.5828
  14   2.0000     -11.263442      -306.4938
  15   2.0000     -11.258713      -306.3652
  16   2.0000     -11.253366      -306.2197
  17   2.0000     -11.251600      -306.1716
  18   2.0000     -11.241728      -305.9030
  19   2.0000     -11.235668      -305.7381
  20   2.0000     -10.565094      -287.4908
  21   2.0000      -8.040237      -218.7860
  22   2.0000      -8.036606      -218.6872
  23   2.0000      -8.036538      -218.6853
  24   2.0000      -1.432195       -38.9720
  25   2.0000      -1.381792       -37.6005
  26   2.0000      -1.349206       -36.7138
  27   2.0000      -1.197193       -32.5773
  28   2.0000      -1.186296       -32.2808
  29   2.0000      -1.120437       -30.4886
  30   2.0000      -1.117646       -30.4127
  31   2.0000      -1.036091       -28.1935
  32   2.0000      -1.029646       -28.0181
  33   2.0000      -1.000983       -27.2381
  34   2.0000      -0.971258       -26.4293
  35   2.0000      -0.949629       -25.8407
  36   2.0000      -0.937535       -25.5116
  37   2.0000      -0.867892       -23.6165
  38   2.0000      -0.860838       -23.4246
  39   2.0000      -0.830000       -22.5854
  40   2.0000      -0.812903       -22.1202
  41   2.0000      -0.799466       -21.7546
  42   2.0000      -0.764199       -20.7949
  43   2.0000      -0.744198       -20.2506
  44   2.0000      -0.736790       -20.0491
  45   2.0000      -0.697287       -18.9741
  46   2.0000      -0.677986       -18.4489
  47   2.0000      -0.673956       -18.3393
  48   2.0000      -0.659968       -17.9586
  49   2.0000      -0.636747       -17.3268
  50   2.0000      -0.632353       -17.2072
  51   2.0000      -0.627102       -17.0643
  52   2.0000      -0.616523       -16.7764
  53   2.0000      -0.614472       -16.7206
  54   2.0000      -0.609930       -16.5970
  55   2.0000      -0.608748       -16.5649
  56   2.0000      -0.588336       -16.0094
  57   2.0000      -0.576055       -15.6753
  58   2.0000      -0.566772       -15.4226
  59   2.0000      -0.563881       -15.3440
  60   2.0000      -0.554134       -15.0788
  61   2.0000      -0.551807       -15.0154
  62   2.0000      -0.543713       -14.7952
  63   2.0000      -0.540000       -14.6941
  64   2.0000      -0.531362       -14.4591
  65   2.0000      -0.521236       -14.1836
  66   2.0000      -0.496422       -13.5083
  67   2.0000      -0.487773       -13.2730
  68   2.0000      -0.482306       -13.1242
  69   2.0000      -0.473031       -12.8718
  70   2.0000      -0.458796       -12.4845
  71   2.0000      -0.447179       -12.1684
  72   2.0000      -0.433250       -11.7893
  73   2.0000      -0.404109       -10.9964
  74   2.0000      -0.366269        -9.9667
  75   2.0000      -0.340138        -9.2556
  76   2.0000      -0.329887        -8.9767
  77   0.0000       0.092710         2.5228
  78   0.0000       0.110939         3.0188
  79   0.0000       0.115445         3.1414
  80   0.0000       0.147235         4.0065
  81   0.0000       0.162396         4.4190

MULLIKEN ATOMIC CHARGES
-----------------------
   0 C :    0.037025
   1 C :   -0.553154
   2 C :    0.081012
   3 C :    0.056449
   4 C :    0.267632
   5 O :   -0.370074
   6 C :    0.593445
   7 O :   -0.534886
   8 C :    0.183595
   9 C :   -0.047800
  10 C :    0.004874
  11 C :    0.021390
  12 Cl:   -0.132221
  13 C :    0.008457
  14 C :   -0.053119
  15 N :   -0.516008
  16 C :    0.090316
  17 C :    0.052094
  18 N :   -0.360383
  19 C :    0.260405
  20 H :    0.044664
  21 H :    0.052410
  22 H :    0.032707
  23 H :    0.033168
  24 H :    0.031864
  25 H :    0.057213
  26 H :    0.058327
  27 H :    0.044272
  28 H :    0.050705
  29 H :    0.062071
  30 H :    0.053816
  31 H :    0.054678
  32 H :    0.055359
  33 H :    0.079024
  34 H :    0.083611
  35 H :    0.053181
  36 H :    0.063879
Sum of atomic charges:    0.0000000

LOEWDIN ATOMIC CHARGES
----------------------
   0 C :   -0.024481
   1 C :   -0.088947
   2 C :   -0.010620
   3 C :   -0.011104
   4 C :    0.167245
   5 O :   -0.217336
   6 C :    0.185253
   7 O :   -0.183063
   8 C :    0.055118
   9 C :   -0.035157
  10 C :   -0.026842
  11 C :   -0.123658
  12 Cl:    0.096181
  13 C :   -0.025455
  14 C :   -0.029487
  15 N :   -0.025565
  16 C :   -0.009685
  17 C :   -0.022490
  18 N :   -0.172617
  19 C :    0.063074
  20 H :    0.017774
  21 H :    0.028595
  22 H :    0.010931
  23 H :    0.016769
  24 H :    0.017363
  25 H :    0.025478
  26 H :    0.021828
  27 H :    0.023456
  28 H :    0.024672
  29 H :    0.023810
  30 H :    0.037202
  31 H :    0.035774
  32 H :    0.036220
  33 H :    0.044552
  34 H :    0.034920
  35 H :    0.021243
  36 H :    0.019053

  Mayer bond orders larger than 0.100000
B(  0-C ,  1-C ) :   0.9885 B(  0-C , 20-H ) :   0.9843 B(  0-C , 21-H ) :   0.9813
B(  0-C , 22-H ) :   0.9766 B(  1-C ,  2-C ) :   1.0075 B(  1-C ,  3-C ) :   0.9780
B(  1-C ,  4-C ) :   0.8546 B(  2-C , 23-H ) :   0.9864 B(  2-C , 24-H ) :   0.9842
B(  2-C , 25-H ) :   0.9799 B(  3-C , 26-H ) :   0.9832 B(  3-C , 27-H ) :   0.9850
B(  3-C , 28-H ) :   0.9822 B(  4-C ,  5-O ) :   2.0376 B(  4-C ,  6-C ) :   0.9408
B(  6-C ,  7-O ) :   0.9096 B(  6-C , 15-N ) :   0.9040 B(  6-C , 29-H ) :   0.9652
B(  7-O ,  8-C ) :   0.9168 B(  8-C ,  9-C ) :   1.4141 B(  8-C , 14-C ) :   1.4303
B(  9-C , 10-C ) :   1.4022 B(  9-C , 30-H ) :   1.0031 B( 10-C , 11-C ) :   1.4077
B( 10-C , 31-H ) :   0.9983 B( 11-C , 12-Cl) :   0.9522 B( 11-C , 13-C ) :   1.4071
B( 13-C , 14-C ) :   1.3900 B( 13-C , 32-H ) :   0.9994 B( 14-C , 33-H ) :   0.9977
B( 15-N , 16-C ) :   1.0647 B( 15-N , 19-C ) :   1.1366 B( 16-C , 17-C ) :   1.6340
B( 16-C , 34-H ) :   0.9924 B( 17-C , 18-N ) :   1.2857 B( 17-C , 35-H ) :   1.0060
B( 18-N , 19-C ) :   1.6722 B( 19-C , 36-H ) :   0.9917

FINAL SINGLE POINT ENERGY     -1295.233561009124

DIPOLE MOMENT
-------------
                                X             Y             Z
Electronic contribution:     24.77912     -18.22823      -6.12588
Nuclear contribution   :    -25.21971      17.96728       7.28074
                        -----------------------------------------
Total Dipole Moment    :     -0.44059      -0.26095       1.15486
                        -----------------------------------------
Magnitude (a.u.)       :      1.26330
Magnitude (Debye)      :      3.21104

Rotational constants in cm-1:     0.017067     0.005727     0.004870
Rotational constants in MHz :   511.654023   171.687199   146.000849

                             ****ORCA TERMINATED NORMALLY****
TOTAL RUN TIME: 0 days 0 hours 0 minutes 22 seconds 140 msec
