                         Program Version 5.0.3 -  RELEASE  -
|  1> !RHF def2-SVP TightSCF PAL16
|  2> *xyz 0 1
|  3> C 7.477080691142909 1.9244796892316356 -1.7093977758521002
|  4> O 6.459063867321645 1.237248472459735 -2.4239337552743705
|  5> C 5.5612387013339255 0.5087499159971611 -1.6944116100135809
|  6> C 5.582010348928671 0.34136594609499177 -0.3100221925414134
|  7> C 4.601068419589489 -0.4333959739000813 0.33249308627355145
|  8> C 3.5766228760927268 -1.0403285481699 -0.39977155894496735
|  9> N 2.555724531104165 -1.8315566724799712 0.20150662008461123
| 10> N 1.9094847640417438 -2.751894455034648 -0.5666123104618292
| 11> N 1.1288214098244929 -3.4889919959898994 0.20278756458666944
| 12> C 1.1901450206586943 -2.978860242103129 1.454313074881474
| 13> C 2.026221483509163 -1.8772208462531716 1.4884024124701851
| 14> C 2.269389967639924 -0.9700476216960898 2.6332176448373144
| 15> N 1.3826206958981109 0.17864763439400083 2.765946335463089
| 16> C 1.550160468613667 1.2805915028775559 1.818450378536448
| 17> C 0.658275755764666 1.2298670863480923 0.5682452218901958
| 18> N -0.7429310955805195 0.9317970279910909 0.8565334592054628
| 19> C -1.6771950982347616 1.3363425399851623 -0.1167571464027754
| 20> O -1.3821047242710163 2.224689191911905 -0.9224799111407643
| 21> C -3.0239807215505743 0.7174462386783481 -0.195617818497633
| 22> C -4.115006418580963 1.2543797810188948 -0.9409465768455555
| 23> C -5.155083136315577 0.36353299693995733 -0.8016606147555462
| 24> C -6.547949213354312 0.37575682549774836 -1.3499067469774562
| 25> C -7.589129002143021 0.3630763689772971 -0.23045921413549136
| 26> C -6.774288060726575 -0.7857271126068753 -2.3180178591535734
| 27> N -4.656647524272467 -0.6403351986897733 -0.02064890847239538
| 28> N -3.3846882747615674 -0.4553631387958386 0.3612034352001767
| 29> C -0.9741528292946505 -0.14347830774057346 1.8219737450445652
| 30> C -0.029466170088223095 -0.09542407395207307 3.040573089960847
| 31> C 3.577233131672764 -0.8972260414511999 -1.7963792876131102
| 32> C 4.553935183586982 -0.12557274508396762 -2.4233552173628907
| 33> F 4.50781272534386 0.0017702861743154052 -3.7582377686986037
| 34> H 8.086745094183836 2.469774579936329 -2.4363066600375007
| 35> H 7.048597750699087 2.6569936240904006 -1.017668902994972
| 36> H 8.133031454673787 1.222005884752931 -1.1850969066518124
| 37> H 6.36050104467595 0.7847853253386696 0.3035990165795855
| 38> H 4.724234032753861 -0.5822614249728271 1.396943263115601
| 39> H 0.6011741195774017 -3.3945746383296274 2.260036192596411
| 40> H 3.2991847316014677 -0.6254358949074295 2.6934428950222236
| 41> H 2.1687115727591064 -1.5666905345085311 3.551719900467521
| 42> H 1.3008446493611887 2.2031567281548496 2.3601506601667417
| 43> H 2.5996903860042484 1.3980652893660688 1.5272316854453583
| 44> H 0.7430710446806842 2.1875495395754583 0.0427277025137218
| 45> H 1.005036982634291 0.4594740372372315 -0.12659271187108243
| 46> H -4.113275350746412 2.1748426478574334 -1.51000402660608
| 47> H -6.681579068951701 1.3082105646190858 -1.9143620291563102
| 48> H -7.541328514965886 -0.5602110958470359 0.3580599497863015
| 49> H -8.60076071273378 0.4453472406669192 -0.6424068589745106
| 50> H -7.4369521336100215 1.2031527738776988 0.4564787513509461
| 51> H -7.772595262227666 -0.728050503449368 -2.7649886133166963
| 52> H -6.6874940713238935 -1.7556216195153211 -1.8153335849942551
| 53> H -6.0407295498143165 -0.7666294929863207 -3.131867746401235
| 54> H -5.130032645822165 -1.484092028732595 0.285694813706664
| 55> H -0.8742290235999127 -1.0922778045672181 1.2872049467336255
| 56> H -1.9908271456234141 -0.06675044131244703 2.2154336193949598
| 57> H -0.15077467456508922 -1.0058566550013806 3.640235265231968
| 58> H -0.3813259977797012 0.71886858320279 3.689010734701804
| 59> H 2.816793515257955 -1.3580932151763259 -2.4235170343444143
| 60> *
| 61>
| 62>                          ****END OF INPUT****

CARTESIAN COORDINATES (ANGSTROEM)
---------------------------------
  C      7.477081    1.924480   -1.709398
  O      6.459064    1.237248   -2.423934
  C      5.561239    0.508750   -1.694412
  C      5.582010    0.341366   -0.310022
  C      4.601068   -0.433396    0.332493
  C      3.576623   -1.040329   -0.399772
  N      2.555725   -1.831557    0.201507
  N      1.909485   -2.751894   -0.566612
  N      1.128821   -3.488992    0.202788
  C      1.190145   -2.978860    1.454313
  C      2.026221   -1.877221    1.488402
  C      2.269390   -0.970048    2.633218
  N      1.382621    0.178648    2.765946
  C      1.550160    1.280592    1.818450
  C      0.658276    1.229867    0.568245
  N     -0.742931    0.931797    0.856533
  C     -1.677195    1.336343   -0.116757
  O     -1.382105    2.224689   -0.922480
  C     -3.023981    0.717446   -0.195618
  C     -4.115006    1.254380   -0.940947
  C     -5.155083    0.363533   -0.801661
  C     -6.547949    0.375757   -1.349907
  C     -7.589129    0.363076   -0.230459
  C     -6.774288   -0.785727   -2.318018
  N     -4.656648   -0.640335   -0.020649
  N     -3.384688   -0.455363    0.361203
  C     -0.974153   -0.143478    1.821974
  C     -0.029466   -0.095424    3.040573
  C      3.577233   -0.897226   -1.796379
  C      4.553935   -0.125573   -2.423355
  F      4.507813    0.001770   -3.758238
  H      8.086745    2.469775   -2.436307
  H      7.048598    2.656994   -1.017669
  H      8.133031    1.222006   -1.185097
  H      6.360501    0.784785    0.303599
  H      4.724234   -0.582261    1.396943
  H      0.601174   -3.394575    2.260036
  H      3.299185   -0.625436    2.693443
  H      2.168712   -1.566691    3.551720
  H      1.300845    2.203157    2.360151
  H      2.599690    1.398065    1.527232
  H      0.743071    2.187550    0.042728
  H      1.005037    0.459474   -0.126593
  H     -4.113275    2.174843   -1.510004
  H     -6.681579    1.308211   -1.914362
  H     -7.541329   -0.560211    0.358060
  H     -8.600761    0.445347   -0.642407
  H     -7.436952    1.203153    0.456479
  H     -7.772595   -0.728051   -2.764989
  H     -6.687494   -1.755622   -1.815334
  H     -6.040730   -0.766629   -3.131868
  H     -5.130033   -1.484092    0.285695
  H     -0.874229   -1.092278    1.287205
  H     -1.990827   -0.066750    2.215434
  H     -0.150775   -1.005857    3.640235
  H     -0.381326    0.718869    3.689011
  H      2.816794   -1.358093   -2.423517

 Total Charge           Charge          ....    0
 Multiplicity           Mult            ....    1
 Number of Electrons    NEL             ....  226
 Basis Dimension        Dim             ....  564

ORBITAL ENERGIES
----------------

  NO   OCC          E(Eh)            E(eV)
   0   2.0000     -26.301374      -715.6968
   1   2.0000     -20.592228      -560.3430
   2   2.0000     -20.506569      -558.0121
   3   2.0000     -15.674578      -426.5270
   4   2.0000     -15.649615      -425.8477
   5   2.0000     -15.635769      -425.4709
   6   2.0000     -15.601343      -424.5341
   7   2.0000     -15.599400      -424.4813
   8   2.0000     -15.573165      -423.7674
   9   2.0000     -15.554526      -423.2602
  10   2.0000     -11.355116      -308.9884
  11   2.0000     -11.339941      -308.5755
  12   2.0000     -11.325741      -308.1891
  13   2.0000     -11.314935      -307.8950
  14   2.0000     -11.304686      -307.6161
  15   2.0000     -11.294287      -307.3332
  16   2.0000     -11.286546      -307.1225
  17   2.0000     -11.284482      -307.0664
  18   2.0000     -11.271348      -306.7090
  19   2.0000     -11.269467      -306.6578
  20   2.0000     -11.267600      -306.6070
  21   2.0000     -11.263782      -306.5031
  22   2.0000     -11.263535      -306.4964
  23   2.0000     -11.260841      -306.4231
  24   2.0000     -11.260109      -306.4031
  25   2.0000     -11.259160      -306.3773
  26   2.0000     -11.254676      -306.2553
  27   2.0000     -11.252304      -306.1908
  28   2.0000     -11.240819      -305.8782
  29   2.0000     -11.238911      -305.8263
  30   2.0000     -11.226807      -305.4970
  31   2.0000      -1.603045       -43.6211
  32   2.0000      -1.423237       -38.7283
  33   2.0000      -1.405642       -38.2495
  34   2.0000      -1.376580       -37.4586
  35   2.0000      -1.349145       -36.7121
  36   2.0000      -1.245417       -33.8895
  37   2.0000      -1.226977       -33.3878
  38   2.0000      -1.199122       -32.6298
  39   2.0000      -1.154211       -31.4077
  40   2.0000      -1.125836       -30.6355
  41   2.0000      -1.088939       -29.6315
  42   2.0000      -1.079065       -29.3628
  43   2.0000      -1.036497       -28.2045
  44   2.0000      -1.031485       -28.0681
  45   2.0000      -1.029771       -28.0215
  46   2.0000      -1.021664       -27.8009
  47   2.0000      -0.990520       -26.9534
  48   2.0000      -0.957710       -26.0606
  49   2.0000      -0.940084       -25.5810
  50   2.0000      -0.921829       -25.0842
  51   2.0000      -0.883037       -24.0287
  52   2.0000      -0.875863       -23.8334
  53   2.0000      -0.870394       -23.6846
  54   2.0000      -0.859807       -23.3965
  55   2.0000      -0.842143       -22.9159
  56   2.0000      -0.824471       -22.4350
  57   2.0000      -0.808391       -21.9974
  58   2.0000      -0.805464       -21.9178
  59   2.0000      -0.783479       -21.3196
  60   2.0000      -0.752361       -20.4728
  61   2.0000      -0.727648       -19.8003
  62   2.0000      -0.725439       -19.7402
  63   2.0000      -0.724103       -19.7039
  64   2.0000      -0.704948       -19.1826
  65   2.0000      -0.703286       -19.1374
  66   2.0000      -0.699892       -19.0450
  67   2.0000      -0.674867       -18.3641
  68   2.0000      -0.665513       -18.1095
  69   2.0000      -0.663272       -18.0485
  70   2.0000      -0.655003       -17.8235
  71   2.0000      -0.645389       -17.5619
  72   2.0000      -0.644060       -17.5258
  73   2.0000      -0.641218       -17.4484
  74   2.0000      -0.636127       -17.3099
  75   2.0000      -0.633392       -17.2355
  76   2.0000      -0.628477       -17.1017
  77   2.0000      -0.627710       -17.0808
  78   2.0000      -0.625205       -17.0127
  79   2.0000      -0.621870       -16.9219
  80   2.0000      -0.605240       -16.4694
  81   2.0000      -0.599717       -16.3191
  82   2.0000      -0.595266       -16.1980
  83   2.0000      -0.587096       -15.9757
  84   2.0000      -0.579197       -15.7608
  85   2.0000      -0.576860       -15.6972
  86   2.0000      -0.572803       -15.5868
  87   2.0000      -0.554653       -15.0929
  88   2.0000      -0.550108       -14.9692
  89   2.0000      -0.548652       -14.9296
  90   2.0000      -0.544440       -14.8150
  91   2.0000      -0.537381       -14.6229
  92   2.0000      -0.525177       -14.2908
  93   2.0000      -0.512353       -13.9418
  94   2.0000      -0.510209       -13.8835
  95   2.0000      -0.507490       -13.8095
  96   2.0000      -0.503515       -13.7013
  97   2.0000      -0.502101       -13.6629
  98   2.0000      -0.501225       -13.6390
  99   2.0000      -0.497207       -13.5297
 100   2.0000      -0.495156       -13.4739
 101   2.0000      -0.490573       -13.3492
 102   2.0000      -0.460362       -12.5271
 103   2.0000      -0.439580       -11.9616
 104   2.0000      -0.429195       -11.6790
 105   2.0000      -0.423432       -11.5222
 106   2.0000      -0.375608       -10.2208
 107   2.0000      -0.367744       -10.0068
 108   2.0000      -0.365836        -9.9549
 109   2.0000      -0.358256        -9.7486
 110   2.0000      -0.344637        -9.3781
 111   2.0000      -0.334857        -9.1119
 112   2.0000      -0.320743        -8.7279
 113   0.0000       0.087556         2.3825
 114   0.0000       0.106863         2.9079
 115   0.0000       0.119195         3.2434
 116   0.0000       0.150264         4.0889
 117   0.0000       0.162642         4.4257

MULLIKEN ATOMIC CHARGES
-----------------------
   0 C :    0.221669
   1 O :   -0.540643
   2 C :    0.257740
   3 C :   -0.123820
   4 C :   -0.066664
   5 C :    0.252966
   6 N :   -0.434465
   7 N :   -0.021485
   8 N :   -0.201645
   9 C :    0.037482
  10 C :    0.038248
  11 C :    0.333011
  12 N :   -0.658563
  13 C :    0.160390
  14 C :    0.192245
  15 N :   -0.728011
  16 C :    0.603024
  17 O :   -0.449589
  18 C :   -0.019339
  19 C :   -0.140384
  20 C :    0.153332
  21 C :   -0.141326
  22 C :    0.013535
  23 C :    0.015768
  24 N :   -0.198119
  25 N :   -0.228478
  26 C :    0.211119
  27 C :    0.189807
  28 C :   -0.086346
  29 C :    0.380524
  30 F :   -0.321706
  31 H :    0.060443
  32 H :    0.035753
  33 H :    0.035340
  34 H :    0.049979
  35 H :    0.048603
  36 H :    0.051993
  37 H :    0.031844
  38 H :    0.046158
  39 H :    0.034719
  40 H :    0.038928
  41 H :    0.075404
  42 H :    0.033791
  43 H :    0.056801
  44 H :    0.047526
  45 H :    0.018300
  46 H :    0.041282
  47 H :    0.047971
  48 H :    0.040416
  49 H :    0.019956
  50 H :    0.052074
  51 H :    0.176218
  52 H :    0.046547
  53 H :    0.055861
  54 H :    0.030274
  55 H :    0.030695
  56 H :    0.092848
Sum of atomic charges:   -0.0000000

LOEWDIN ATOMIC CHARGES
----------------------
   0 C :    0.135444
   1 O :   -0.188771
   2 C :    0.070848
   3 C :   -0.061010
   4 C :   -0.033071
   5 C :    0.025116
   6 N :    0.035199
   7 N :   -0.065591
   8 N :   -0.094528
   9 C :   -0.057336
  10 C :   -0.014406
  11 C :    0.064793
  12 N :   -0.192177
  13 C :    0.057888
  14 C :    0.066369
  15 N :   -0.156568
  16 C :    0.202126
  17 O :   -0.312543
  18 C :   -0.055820
  19 C :   -0.083077
  20 C :    0.030487
  21 C :   -0.033095
  22 C :   -0.022833
  23 C :   -0.021874
  24 N :    0.083381
  25 N :   -0.112619
  26 C :    0.061791
  27 C :    0.060856
  28 C :   -0.020942
  29 C :    0.121902
  30 F :   -0.119014
  31 H :    0.025892
  32 H :    0.009036
  33 H :    0.008535
  34 H :    0.035077
  35 H :    0.030194
  36 H :    0.023419
  37 H :    0.018868
  38 H :    0.031112
  39 H :    0.014405
  40 H :    0.017911
  41 H :    0.032488
  42 H :    0.002146
  43 H :    0.036619
  44 H :    0.032031
  45 H :    0.010543
  46 H :    0.020583
  47 H :    0.023016
  48 H :    0.020006
  49 H :    0.011449
  50 H :    0.024911
  51 H :    0.088563
  52 H :    0.005824
  53 H :    0.020992
  54 H :    0.016868
  55 H :    0.013567
  56 H :    0.055021

  Mayer bond orders larger than 0.100000
B(  0-C ,  1-O ) :   0.8636 B(  0-C , 31-H ) :   0.9925 B(  0-C , 32-H ) :   0.9847
B(  0-C , 33-H ) :   0.9848 B(  1-O ,  2-C ) :   1.0271 B(  2-C ,  3-C ) :   1.3704
B(  2-C , 29-C ) :   1.3324 B(  3-C ,  4-C ) :   1.3923 B(  3-C , 34-H ) :   1.0029
B(  4-C ,  5-C ) :   1.4302 B(  4-C , 35-H ) :   1.0029 B(  5-C ,  6-N ) :   0.8501
B(  5-C , 28-C ) :   1.3593 B(  6-N ,  7-N ) :   1.1155 B(  6-N , 10-C ) :   1.0871
B(  7-N ,  8-N ) :   1.4908 B(  8-N ,  9-C ) :   1.3232 B(  9-C , 10-C ) :   1.5751
B(  9-C , 36-H ) :   1.0122 B( 10-C , 11-C ) :   0.9432 B( 11-C , 12-N ) :   0.9915
B( 11-C , 37-H ) :   0.9878 B( 11-C , 38-H ) :   0.9767 B( 12-N , 13-C ) :   0.9271
B( 12-N , 27-C ) :   0.9310 B( 13-C , 14-C ) :   1.0398 B( 13-C , 39-H ) :   0.9724
B( 13-C , 40-H ) :   0.9797 B( 14-C , 15-N ) :   0.8699 B( 14-C , 41-H ) :   0.9682
B( 14-C , 42-H ) :   0.9771 B( 15-N , 16-C ) :   1.0886 B( 15-N , 26-C ) :   0.8560
B( 16-C , 17-O ) :   1.9771 B( 16-C , 18-C ) :   0.9556 B( 18-C , 19-C ) :   1.3003
B( 18-C , 25-N ) :   1.5421 B( 19-C , 20-C ) :   1.5829 B( 19-C , 43-H ) :   1.0034
B( 20-C , 21-C ) :   0.9377 B( 20-C , 24-N ) :   1.1185 B( 21-C , 22-C ) :   1.0276
B( 21-C , 23-C ) :   1.0268 B( 21-C , 44-H ) :   0.9558 B( 22-C , 45-H ) :   0.9789
B( 22-C , 46-H ) :   0.9878 B( 22-C , 47-H ) :   0.9858 B( 23-C , 48-H ) :   0.9877
B( 23-C , 49-H ) :   0.9788 B( 23-C , 50-H ) :   0.9855 B( 24-N , 25-N ) :   1.1627
B( 24-N , 51-H ) :   0.9517 B( 26-C , 27-C ) :   1.0274 B( 26-C , 52-H ) :   0.9743
B( 26-C , 53-H ) :   0.9690 B( 27-C , 54-H ) :   0.9801 B( 27-C , 55-H ) :   0.9722
B( 28-C , 29-C ) :   1.4441 B( 28-C , 56-H ) :   1.0037 B( 29-C , 30-F ) :   0.9434

FINAL SINGLE POINT ENERGY     -1439.458082776385

DIPOLE MOMENT
-------------
                                X             Y             Z
Electronic contribution:     28.77730      -6.46010     -12.23944
Nuclear contribution   :    -29.17040       6.68486      14.41440
                        -----------------------------------------
Total Dipole Moment    :     -0.39310       0.22476       2.17496
                        -----------------------------------------
Magnitude (a.u.)       :      2.22160
Magnitude (Debye)      :      5.64686

Rotational constants in cm-1:     0.008307     0.002124     0.001987
Rotational constants in MHz :   249.040204    63.676045    59.575456

                             ****ORCA TERMINATED NORMALLY****
TOTAL RUN TIME: 0 days 0 hours 0 minutes 53 seconds 664 msec
