                         Program Version 5.0.3 -  RELEASE  -
|  1> !RHF def2-SVP TightSCF PAL16
|  2> *xyz 0 1
|  3> C 5.007718221096418 1.0471184440441148 -1.3557389997922435
|  4> N 3.990831064280314 0.08478011195073615 -0.9209801119535945
|  5> C 3.924244180841475 -1.0225204233232845 -1.87788423578779
|  6> C 2.692626237678155 0.7643954741458703 -0.7668288509282122
|  7> C 1.6379482348922263 -0.11445528362377116 -0.07794382171951413
|  8> C 0.3517423700696753 0.6769988259781247 0.19279707128313298
|  9> C -0.6980915730707945 -0.0794639807791355 1.049821591599094
| 10> C -1.74032946232638 0.9332186114808032 1.5228451674984207
| 11> C -1.4578018704095985 1.8128762904296443 2.5799962255240216
| 12> C -2.379117550228585 2.7944116328550135 2.9438221738866406
| 13> C -3.581007541439402 2.913403049020072 2.24896527313415
| 14> C -3.873405586314554 2.0381542361840026 1.201352813255725
| 15> C -2.972928698499024 1.0268556381773717 0.8531993127918492
| 16> N -3.2613603753659053 0.1353301412556246 -0.19834808375333637
| 17> C -2.5646692984211317 -1.0788927259772834 -0.3459629425454751
| 18> C -3.0818264427682958 -2.1031208196626463 -1.146734771113077
| 19> C -2.404831726564515 -3.31883375005812 -1.2609262490054969
| 20> C -1.2048468008139557 -3.50760459987694 -0.5805049860050725
| 21> Cl -0.37727690587378 -5.0106383583023675 -0.7100871639574784
| 22> C -0.6606669147033879 -2.4829438909366592 0.1918912472259958
| 23> C -1.3189388163095572 -1.2465677508612187 0.28802215554712224
| 24> H 5.114629211316531 1.8539357903388005 -0.6219938296281675
| 25> H 5.988746328888458 0.5645372135452653 -1.4306253630504853
| 26> H 4.766304138217203 1.4928593059645143 -2.3276202694808052
| 27> H 3.2703226757126784 -1.8221318927445196 -1.516748628512987
| 28> H 4.912378190471124 -1.4798358123723847 -2.0054358486594985
| 29> H 3.5688916988242156 -0.6974764082038182 -2.8623626044494013
| 30> H 2.8365457574770128 1.6567162226166159 -0.14353073965336252
| 31> H 2.3147676545959435 1.1117580281064405 -1.7374480089279347
| 32> H 2.038837199833521 -0.49768600604895713 0.8682154703324594
| 33> H 1.406878036416521 -0.9706250152959419 -0.7171531640272627
| 34> H -0.09133982301698755 0.9829668857554242 -0.7648985761311414
| 35> H 0.6357452296874472 1.6052907657107713 0.7063686195889054
| 36> H -0.21858443384012408 -0.4892305486412452 1.94963617283377
| 37> H -0.5111465683416817 1.746401331084763 3.1109821681664847
| 38> H -2.1528344862843576 3.4761759974641477 3.7596108336035856
| 39> H -4.2919533763913424 3.6885260403287377 2.5226333133675283
| 40> H -4.813926201538059 2.145094927818121 0.6688929489065901
| 41> H -4.241537305050275 0.09238843403677867 -0.449441642424288
| 42> H -4.023200034179214 -1.9689820327639604 -1.6721544845848824
| 43> H -2.821819523382669 -4.113108726905557 -1.8737461617791458
| 44> H 0.28428488483602854 -2.6400753719144148 0.7060469793250536
| 45> *
| 46>
| 47>                          ****END OF INPUT****

CARTESIAN COORDINATES (ANGSTROEM)
---------------------------------
  C      5.007718    1.047118   -1.355739
  N      3.990831    0.084780   -0.920980
  C      3.924244   -1.022520   -1.877884
  C      2.692626    0.764395   -0.766829
  C      1.637948   -0.114455   -0.077944
  C      0.351742    0.676999    0.192797
  C     -0.698092   -0.079464    1.049822
  C     -1.740329    0.933219    1.522845
  C     -1.457802    1.812876    2.579996
  C     -2.379118    2.794412    2.943822
  C     -3.581008    2.913403    2.248965
  C     -3.873406    2.038154    1.201353
  C     -2.972929    1.026856    0.853199
  N     -3.261360    0.135330   -0.198348
  C     -2.564669   -1.078893   -0.345963
  C     -3.081826   -2.103121   -1.146735
  C     -2.404832   -3.318834   -1.260926
  C     -1.204847   -3.507605   -0.580505
  Cl    -0.377277   -5.010638   -0.710087
  C     -0.660667   -2.482944    0.191891
  C     -1.318939   -1.246568    0.288022
  H      5.114629    1.853936   -0.621994
  H      5.988746    0.564537   -1.430625
  H      4.766304    1.492859   -2.327620
  H      3.270323   -1.822132   -1.516749
  H      4.912378   -1.479836   -2.005436
  H      3.568892   -0.697476   -2.862363
  H      2.836546    1.656716   -0.143531
  H      2.314768    1.111758   -1.737448
  H      2.038837   -0.497686    0.868215
  H      1.406878   -0.970625   -0.717153
  H     -0.091340    0.982967   -0.764899
  H      0.635745    1.605291    0.706369
  H     -0.218584   -0.489231    1.949636
  H     -0.511147    1.746401    3.110982
  H     -2.152834    3.476176    3.759611
  H     -4.291953    3.688526    2.522633
  H     -4.813926    2.145095    0.668893
  H     -4.241537    0.092388   -0.449442
  H     -4.023200   -1.968982   -1.672154
  H     -2.821820   -4.113109   -1.873746
  H      0.284285   -2.640075    0.706047

 Total Charge           Charge          ....    0
 Multiplicity           Mult            ....    1
 Number of Electrons    NEL             ....  160
 Basis Dimension        Dim             ....  403

ORBITAL ENERGIES
----------------

  NO   OCC          E(Eh)            E(eV)
   0   2.0000    -104.788030     -2851.4273
   1   2.0000     -15.591308      -424.2610
   2   2.0000     -15.540843      -422.8878
   3   2.0000     -11.293714      -307.3176
   4   2.0000     -11.289974      -307.2158
   5   2.0000     -11.287607      -307.1514
   6   2.0000     -11.254340      -306.2462
   7   2.0000     -11.254219      -306.2429
   8   2.0000     -11.251500      -306.1689
   9   2.0000     -11.250755      -306.1486
  10   2.0000     -11.248524      -306.0879
  11   2.0000     -11.248316      -306.0822
  12   2.0000     -11.245423      -306.0035
  13   2.0000     -11.244363      -305.9747
  14   2.0000     -11.244128      -305.9683
  15   2.0000     -11.243206      -305.9432
  16   2.0000     -11.242143      -305.9143
  17   2.0000     -11.239178      -305.8336
  18   2.0000     -11.232290      -305.6461
  19   2.0000     -11.228478      -305.5424
  20   2.0000     -11.219056      -305.2860
  21   2.0000     -10.551904      -287.1319
  22   2.0000      -8.027061      -218.4274
  23   2.0000      -8.023495      -218.3304
  24   2.0000      -8.023389      -218.3275
  25   2.0000      -1.263780       -34.3892
  26   2.0000      -1.205418       -32.8011
  27   2.0000      -1.177747       -32.0481
  28   2.0000      -1.139311       -31.0022
  29   2.0000      -1.113508       -30.3001
  30   2.0000      -1.078767       -29.3547
  31   2.0000      -1.028665       -27.9914
  32   2.0000      -1.015177       -27.6244
  33   2.0000      -1.004180       -27.3251
  34   2.0000      -0.971664       -26.4403
  35   2.0000      -0.939457       -25.5639
  36   2.0000      -0.935536       -25.4572
  37   2.0000      -0.886454       -24.1216
  38   2.0000      -0.851485       -23.1701
  39   2.0000      -0.835276       -22.7290
  40   2.0000      -0.819557       -22.3013
  41   2.0000      -0.812997       -22.1228
  42   2.0000      -0.779056       -21.1992
  43   2.0000      -0.749276       -20.3888
  44   2.0000      -0.724075       -19.7031
  45   2.0000      -0.719986       -19.5918
  46   2.0000      -0.662743       -18.0341
  47   2.0000      -0.655662       -17.8415
  48   2.0000      -0.649144       -17.6641
  49   2.0000      -0.641986       -17.4693
  50   2.0000      -0.637107       -17.3366
  51   2.0000      -0.634298       -17.2601
  52   2.0000      -0.614503       -16.7215
  53   2.0000      -0.610669       -16.6171
  54   2.0000      -0.602012       -16.3816
  55   2.0000      -0.601739       -16.3742
  56   2.0000      -0.591339       -16.0912
  57   2.0000      -0.578341       -15.7375
  58   2.0000      -0.568948       -15.4819
  59   2.0000      -0.551260       -15.0005
  60   2.0000      -0.543191       -14.7810
  61   2.0000      -0.537915       -14.6374
  62   2.0000      -0.533962       -14.5299
  63   2.0000      -0.530751       -14.4425
  64   2.0000      -0.519873       -14.1465
  65   2.0000      -0.516004       -14.0412
  66   2.0000      -0.507431       -13.8079
  67   2.0000      -0.497661       -13.5420
  68   2.0000      -0.487403       -13.2629
  69   2.0000      -0.485353       -13.2071
  70   2.0000      -0.479629       -13.0514
  71   2.0000      -0.465214       -12.6591
  72   2.0000      -0.457576       -12.4513
  73   2.0000      -0.445021       -12.1096
  74   2.0000      -0.437236       -11.8978
  75   2.0000      -0.354829        -9.6554
  76   2.0000      -0.348646        -9.4871
  77   2.0000      -0.339115        -9.2278
  78   2.0000      -0.332480        -9.0472
  79   2.0000      -0.277816        -7.5598
  80   0.0000       0.108549         2.9538
  81   0.0000       0.122024         3.3204
  82   0.0000       0.129364         3.5202
  83   0.0000       0.161820         4.4033
  84   0.0000       0.173887         4.7317

MULLIKEN ATOMIC CHARGES
-----------------------
   0 C :    0.155872
   1 N :   -0.628516
   2 C :    0.147921
   3 C :    0.183181
   4 C :   -0.053792
   5 C :    0.011742
   6 C :    0.109353
   7 C :   -0.201514
   8 C :   -0.005201
   9 C :   -0.058918
  10 C :   -0.004851
  11 C :   -0.092503
  12 C :    0.236145
  13 N :   -0.386574
  14 C :    0.235058
  15 C :   -0.084938
  16 C :    0.014567
  17 C :    0.015233
  18 Cl:   -0.147102
  19 C :    0.019700
  20 C :   -0.189203
  21 H :    0.029009
  22 H :    0.030265
  23 H :   -0.000574
  24 H :    0.039544
  25 H :    0.029998
  26 H :    0.000726
  27 H :    0.019207
  28 H :    0.001719
  29 H :    0.031251
  30 H :    0.048635
  31 H :    0.034575
  32 H :    0.029026
  33 H :    0.041932
  34 H :    0.031881
  35 H :    0.036044
  36 H :    0.041077
  37 H :    0.018148
  38 H :    0.147934
  39 H :    0.026265
  40 H :    0.046001
  41 H :    0.041675
Sum of atomic charges:   -0.0000000

LOEWDIN ATOMIC CHARGES
----------------------
   0 C :    0.055101
   1 N :   -0.206555
   2 C :    0.054186
   3 C :    0.065629
   4 C :   -0.026386
   5 C :   -0.002986
   6 C :    0.001342
   7 C :   -0.052516
   8 C :   -0.004355
   9 C :   -0.053432
  10 C :   -0.010447
  11 C :   -0.062258
  12 C :    0.058148
  13 N :   -0.065759
  14 C :    0.060936
  15 C :   -0.055195
  16 C :   -0.023019
  17 C :   -0.142853
  18 Cl:    0.084999
  19 C :   -0.016594
  20 C :   -0.046949
  21 H :    0.011201
  22 H :    0.011755
  23 H :   -0.008535
  24 H :    0.012416
  25 H :    0.013470
  26 H :   -0.007842
  27 H :    0.008842
  28 H :   -0.008674
  29 H :    0.014043
  30 H :    0.012314
  31 H :    0.018306
  32 H :    0.013169
  33 H :    0.024585
  34 H :    0.026581
  35 H :    0.024630
  36 H :    0.028106
  37 H :    0.022564
  38 H :    0.079621
  39 H :    0.026798
  40 H :    0.033330
  41 H :    0.032284

  Mayer bond orders larger than 0.100000
B(  0-C ,  1-N ) :   0.9496 B(  0-C , 21-H ) :   0.9917 B(  0-C , 22-H ) :   0.9922
B(  0-C , 23-H ) :   0.9758 B(  1-N ,  2-C ) :   0.9391 B(  1-N ,  3-C ) :   0.9501
B(  2-C , 24-H ) :   0.9917 B(  2-C , 25-H ) :   0.9914 B(  2-C , 26-H ) :   0.9751
B(  3-C ,  4-C ) :   1.0432 B(  3-C , 27-H ) :   0.9764 B(  3-C , 28-H ) :   0.9657
B(  4-C ,  5-C ) :   1.0330 B(  4-C , 29-H ) :   0.9662 B(  4-C , 30-H ) :   0.9581
B(  5-C ,  6-C ) :   1.0118 B(  5-C , 31-H ) :   0.9571 B(  5-C , 32-H ) :   0.9757
B(  6-C ,  7-C ) :   0.9882 B(  6-C , 20-C ) :   0.9508 B(  6-C , 33-H ) :   0.9615
B(  7-C ,  8-C ) :   1.4444 B(  7-C , 12-C ) :   1.3959 B(  8-C ,  9-C ) :   1.4259
B(  8-C , 34-H ) :   1.0030 B(  9-C , 10-C ) :   1.4031 B(  9-C , 35-H ) :   1.0011
B( 10-C , 11-C ) :   1.4336 B( 10-C , 36-H ) :   0.9976 B( 11-C , 12-C ) :   1.3875
B( 11-C , 37-H ) :   1.0034 B( 12-C , 13-N ) :   1.0232 B( 13-N , 14-C ) :   1.0332
B( 13-N , 38-H ) :   0.9346 B( 14-C , 15-C ) :   1.3869 B( 14-C , 20-C ) :   1.3906
B( 15-C , 16-C ) :   1.4346 B( 15-C , 39-H ) :   1.0015 B( 16-C , 17-C ) :   1.4116
B( 16-C , 40-H ) :   1.0000 B( 17-C , 18-Cl) :   0.9341 B( 17-C , 19-C ) :   1.4085
B( 19-C , 20-C ) :   1.4538 B( 19-C , 41-H ) :   1.0037

FINAL SINGLE POINT ENERGY     -1261.515633337038

DIPOLE MOMENT
-------------
                                X             Y             Z
Electronic contribution:    -24.08547     -22.31088       3.84223
Nuclear contribution   :     23.45758      23.11024      -4.06801
                        -----------------------------------------
Total Dipole Moment    :     -0.62789       0.79936      -0.22578
                        -----------------------------------------
Magnitude (a.u.)       :      1.04125
Magnitude (Debye)      :      2.64665

Rotational constants in cm-1:     0.008968     0.006772     0.004184
Rotational constants in MHz :   268.868066   203.033251   125.435513

                             ****ORCA TERMINATED NORMALLY****
TOTAL RUN TIME: 0 days 0 hours 0 minutes 26 seconds 112 msec
