                         Program Version 5.0.3 -  RELEASE  -
|  1> !RHF def2-SVP TightSCF PAL16
|  2> *xyz 0 1
|  3> O 0.668211190683636 -1.6123107483816306 2.343600041223047
|  4> C 0.7156576475518504 -1.4394266325283076 0.9265401535961166
|  5> C 2.053210604426099 -0.8616961241421105 0.5030152787002322
|  6> C 2.8269777786663375 -0.0745771780412821 1.3727102763505314
|  7> C 4.04368469479399 0.4692149243708649 0.9530642612684975
|  8> C 4.495585263399133 0.23509735455636668 -0.3428639688574051
|  9> Cl 5.992137862091691 0.9069046718782056 -0.8617813322602295
| 10> C 3.7415139423641963 -0.5369300669638578 -1.2233689372228647
| 11> C 2.524975803820783 -1.0812511060968486 -0.8033385029029968
| 12> C -0.4562849868494231 -0.5910841845559702 0.5581748770830773
| 13> C -0.6165735909659975 0.7094674773123122 0.11815683409949972
| 14> C -2.0107544108933912 0.9212806000964497 -0.04040485431000491
| 15> C -2.8252212730674744 1.9920664851825862 -0.44836577590376603
| 16> C -4.215548434308373 1.8083966079975127 -0.47287644716376387
| 17> C -4.788113849374056 0.5891012591652073 -0.10011430460962246
| 18> C -3.9943321840491928 -0.48737715397986525 0.30973370034395015
| 19> C -2.6181240048098724 -0.2739384820619505 0.32310622341639117
| 20> O -1.6803084027314503 -1.1898093003053687 0.6899809383036913
| 21> H -0.25048013082043874 -1.865598075311165 2.5443989133612748
| 22> H 0.6064759650154766 -2.4370183495189823 0.4839573194275943
| 23> H 2.4828158599010632 0.11520774769056137 2.3884028868226173
| 24> H 4.629881143156726 1.0709680329386393 1.6422352588186035
| 25> H 4.092899981818903 -0.7179935350197814 -2.2356412762773314
| 26> H 1.9436312573600902 -1.678127628284667 -1.5039518154448877
| 27> H 0.17732522920541355 1.420706811303757 -0.06411827024400232
| 28> H -2.390808248228922 2.9438226361778743 -0.7389891447513313
| 29> H -4.857144533007705 2.6293712281556783 -0.7866948549064109
| 30> H -5.869780244187242 0.4739794676315595 -0.12803209242017793
| 31> H -4.421509930960697 -1.438446739264981 0.6024071514765919
| 32> *
| 33>
| 34>                          ****END OF INPUT****

CARTESIAN COORDINATES (ANGSTROEM)
---------------------------------
  O      0.668211   -1.612311    2.343600
  C      0.715658   -1.439427    0.926540
  C      2.053211   -0.861696    0.503015
  C      2.826978   -0.074577    1.372710
  C      4.043685    0.469215    0.953064
  C      4.495585    0.235097   -0.342864
  Cl     5.992138    0.906905   -0.861781
  C      3.741514   -0.536930   -1.223369
  C      2.524976   -1.081251   -0.803339
  C     -0.456285   -0.591084    0.558175
  C     -0.616574    0.709467    0.118157
  C     -2.010754    0.921281   -0.040405
  C     -2.825221    1.992066   -0.448366
  C     -4.215548    1.808397   -0.472876
  C     -4.788114    0.589101   -0.100114
  C     -3.994332   -0.487377    0.309734
  C     -2.618124   -0.273938    0.323106
  O     -1.680308   -1.189809    0.689981
  H     -0.250480   -1.865598    2.544399
  H      0.606476   -2.437018    0.483957
  H      2.482816    0.115208    2.388403
  H      4.629881    1.070968    1.642235
  H      4.092900   -0.717994   -2.235641
  H      1.943631   -1.678128   -1.503952
  H      0.177325    1.420707   -0.064118
  H     -2.390808    2.943823   -0.738989
  H     -4.857145    2.629371   -0.786695
  H     -5.869780    0.473979   -0.128032
  H     -4.421510   -1.438447    0.602407

 Total Charge           Charge          ....    0
 Multiplicity           Mult            ....    1
 Number of Electrons    NEL             ....  134
 Basis Dimension        Dim             ....  311

ORBITAL ENERGIES
----------------

  NO   OCC          E(Eh)            E(eV)
   0   2.0000    -104.795740     -2851.6371
   1   2.0000     -20.627091      -561.2917
   2   2.0000     -20.563754      -559.5682
   3   2.0000     -11.316407      -307.9351
   4   2.0000     -11.314832      -307.8922
   5   2.0000     -11.303887      -307.5944
   6   2.0000     -11.303143      -307.5742
   7   2.0000     -11.261432      -306.4391
   8   2.0000     -11.259364      -306.3829
   9   2.0000     -11.256658      -306.3092
  10   2.0000     -11.255319      -306.2728
  11   2.0000     -11.254043      -306.2381
  12   2.0000     -11.253247      -306.2164
  13   2.0000     -11.251168      -306.1598
  14   2.0000     -11.249173      -306.1056
  15   2.0000     -11.247450      -306.0587
  16   2.0000     -11.246233      -306.0256
  17   2.0000     -11.244320      -305.9735
  18   2.0000     -10.559652      -287.3427
  19   2.0000      -8.034790      -218.6378
  20   2.0000      -8.031167      -218.5392
  21   2.0000      -8.031116      -218.5378
  22   2.0000      -1.462578       -39.7988
  23   2.0000      -1.357914       -36.9507
  24   2.0000      -1.187730       -32.3198
  25   2.0000      -1.153356       -31.3844
  26   2.0000      -1.124550       -30.6006
  27   2.0000      -1.084323       -29.5059
  28   2.0000      -1.039695       -28.2915
  29   2.0000      -1.022250       -27.8168
  30   2.0000      -1.011708       -27.5300
  31   2.0000      -0.986310       -26.8389
  32   2.0000      -0.922913       -25.1137
  33   2.0000      -0.852361       -23.1939
  34   2.0000      -0.845464       -23.0062
  35   2.0000      -0.821503       -22.3542
  36   2.0000      -0.807915       -21.9845
  37   2.0000      -0.786031       -21.3890
  38   2.0000      -0.728964       -19.8361
  39   2.0000      -0.705290       -19.1919
  40   2.0000      -0.696622       -18.9560
  41   2.0000      -0.692287       -18.8381
  42   2.0000      -0.672315       -18.2946
  43   2.0000      -0.657261       -17.8850
  44   2.0000      -0.642820       -17.4920
  45   2.0000      -0.637325       -17.3425
  46   2.0000      -0.621059       -16.8999
  47   2.0000      -0.609277       -16.5793
  48   2.0000      -0.602537       -16.3959
  49   2.0000      -0.597396       -16.2560
  50   2.0000      -0.590594       -16.0709
  51   2.0000      -0.577017       -15.7014
  52   2.0000      -0.547651       -14.9023
  53   2.0000      -0.544615       -14.8197
  54   2.0000      -0.530345       -14.4314
  55   2.0000      -0.518190       -14.1007
  56   2.0000      -0.510927       -13.9030
  57   2.0000      -0.505840       -13.7646
  58   2.0000      -0.498377       -13.5615
  59   2.0000      -0.478378       -13.0173
  60   2.0000      -0.459256       -12.4970
  61   2.0000      -0.452833       -12.3222
  62   2.0000      -0.414505       -11.2793
  63   2.0000      -0.354525        -9.6471
  64   2.0000      -0.336577        -9.1587
  65   2.0000      -0.334338        -9.0978
  66   2.0000      -0.304906        -8.2969
  67   0.0000       0.093013         2.5310
  68   0.0000       0.111170         3.0251
  69   0.0000       0.118444         3.2230
  70   0.0000       0.142103         3.8668
  71   0.0000       0.177163         4.8208

MULLIKEN ATOMIC CHARGES
-----------------------
   0 O :   -0.447170
   1 C :    0.485638
   2 C :   -0.233640
   3 C :    0.015458
   4 C :   -0.011274
   5 C :    0.037317
   6 Cl:   -0.135758
   7 C :   -0.013508
   8 C :    0.002800
   9 C :    0.113913
  10 C :   -0.045612
  11 C :   -0.084852
  12 C :   -0.002185
  13 C :   -0.049315
  14 C :   -0.027490
  15 C :   -0.083169
  16 C :    0.279675
  17 O :   -0.487721
  18 H :    0.208857
  19 H :    0.045462
  20 H :    0.066397
  21 H :    0.050035
  22 H :    0.048981
  23 H :    0.044340
  24 H :    0.049815
  25 H :    0.037680
  26 H :    0.043734
  27 H :    0.047848
  28 H :    0.043744
Sum of atomic charges:    0.0000000

LOEWDIN ATOMIC CHARGES
----------------------
   0 O :   -0.182031
   1 C :    0.119758
   2 C :   -0.042816
   3 C :    0.003419
   4 C :   -0.037901
   5 C :   -0.112384
   6 Cl:    0.094925
   7 C :   -0.039031
   8 C :   -0.007710
   9 C :    0.068695
  10 C :   -0.062274
  11 C :   -0.062131
  12 C :   -0.010367
  13 C :   -0.038736
  14 C :   -0.021417
  15 C :   -0.041542
  16 C :    0.081430
  17 O :   -0.114900
  18 H :    0.089176
  19 H :    0.023073
  20 H :    0.038648
  21 H :    0.033877
  22 H :    0.033434
  23 H :    0.030583
  24 H :    0.035167
  25 H :    0.028884
  26 H :    0.028266
  27 H :    0.029322
  28 H :    0.034582

  Mayer bond orders larger than 0.100000
B(  0-O ,  1-C ) :   0.9503 B(  0-O , 18-H ) :   0.9607 B(  1-C ,  2-C ) :   0.9967
B(  1-C ,  9-C ) :   0.9479 B(  1-C , 19-H ) :   0.9742 B(  2-C ,  3-C ) :   1.4180
B(  2-C ,  8-C ) :   1.4044 B(  3-C ,  4-C ) :   1.4163 B(  3-C , 20-H ) :   0.9971
B(  4-C ,  5-C ) :   1.4052 B(  4-C , 21-H ) :   1.0044 B(  5-C ,  6-Cl) :   0.9520
B(  5-C ,  7-C ) :   1.4039 B(  7-C ,  8-C ) :   1.4373 B(  7-C , 22-H ) :   1.0023
B(  8-C , 23-H ) :   0.9986 B(  9-C , 10-C ) :   1.7563 B(  9-C , 17-O ) :   0.9863
B( 10-C , 11-C ) :   1.1199 B( 10-C , 24-H ) :   1.0095 B( 11-C , 12-C ) :   1.3156
B( 11-C , 16-C ) :   1.3485 B( 12-C , 13-C ) :   1.4787 B( 12-C , 25-H ) :   1.0041
B( 13-C , 14-C ) :   1.3727 B( 13-C , 26-H ) :   0.9996 B( 14-C , 15-C ) :   1.4424
B( 14-C , 27-H ) :   0.9965 B( 15-C , 16-C ) :   1.3870 B( 15-C , 28-H ) :   1.0092
B( 16-C , 17-O ) :   0.9776

FINAL SINGLE POINT ENERGY     -1182.948630812538

DIPOLE MOMENT
-------------
                                X             Y             Z
Electronic contribution:     16.96490       0.91481      -2.14785
Nuclear contribution   :    -17.90353      -0.92689       1.88289
                        -----------------------------------------
Total Dipole Moment    :     -0.93863      -0.01208      -0.26496
                        -----------------------------------------
Magnitude (a.u.)       :      0.97539
Magnitude (Debye)      :      2.47923

Rotational constants in cm-1:     0.032911     0.005254     0.004822
Rotational constants in MHz :   986.657015   157.510632   144.569718

                             ****ORCA TERMINATED NORMALLY****
TOTAL RUN TIME: 0 days 0 hours 0 minutes 13 seconds 106 msec
