                         Program Version 5.0.3 -  RELEASE  -
|  1> !RHF def2-SVP TightSCF PAL16
|  2> *xyz 0 1
|  3> C 2.9332004975649824 2.213823677386911 0.5424988639052866
|  4> C 3.8113197983799325 0.9840198623579057 0.2587074988425771
|  5> C 4.143822065429884 0.9100183722386742 -1.2405282504648079
|  6> C 5.128099791948383 1.139776246839121 1.0444226021058538
|  7> N 3.1876715433777165 -0.2618892958001874 0.7487263752691136
|  8> C 1.8980740161642629 -0.6188989604706928 0.1265625227906773
|  9> C 1.3423627105541867 -1.8789909793706356 0.8242870457160435
| 10> O 1.2528268405273324 -1.626844378908213 2.234817700571812
| 11> C -0.027004381612745338 -2.3086999738349334 0.2778035208849209
| 12> O -0.9109166978958315 -1.1855508517680176 0.2317653940764587
| 13> C -2.1646141558131426 -1.3746319703412193 -0.2829435433812934
| 14> C -2.67875927383147 -2.6057879360651093 -0.701545941620925
| 15> C -3.9615886574590187 -2.688657362004675 -1.2501126829541709
| 16> C -4.743815120782622 -1.5438413057905818 -1.3797821896566256
| 17> C -4.246778844094457 -0.31911064252316207 -0.9401075746042733
| 18> C -2.961551488523309 -0.22131808360520805 -0.3884853642926173
| 19> C -2.4340991903945293 1.1462133794075446 -0.03420344639463892
| 20> C -3.549395194700157 2.0806509713880037 0.40388433690784625
| 21> C -4.7217687879330965 2.0469020998699032 -0.5453798718563888
| 22> O -5.426095303179713 3.031037933221879 -0.7595870117967657
| 23> N -5.035372247655192 0.8272019125976638 -1.0809870909061992
| 24> H 2.0249655639117274 2.2220851828618726 -0.06928877646154387
| 25> H 3.475247303703196 3.1407326394725112 0.32077710033799217
| 26> H 2.6326436164630564 2.2537519410004165 1.5959255279082831
| 27> H 4.7226256144482015 1.7859269075540742 -1.5562733112887286
| 28> H 3.2404499623762897 0.881663160353448 -1.8590878161029158
| 29> H 4.740833385019563 0.020717341241067947 -1.4734149650852206
| 30> H 5.658815358939666 2.0527312912647537 0.7499425829676536
| 31> H 4.944934530137557 1.1995642917132672 2.124021023188787
| 32> H 5.805277357006824 0.2957470263264304 0.8664479780755251
| 33> H 3.8426868194698645 -1.0346518575053774 0.6141851460940349
| 34> H 2.0122176993084664 -0.8167253253486495 -0.9437703347053835
| 35> H 1.1905049599091437 0.20349648105297014 0.2660692480832529
| 36> H 2.0431665029887527 -2.71374053715976 0.703171820199858
| 37> H 1.9770987578127661 -0.9932531292244723 2.419260147510396
| 38> H 0.10963938051526405 -2.7071276498848866 -0.7347081228619317
| 39> H -0.4488343488402958 -3.077335982138296 0.9361503304019154
| 40> H -2.1046749368722866 -3.522906857153269 -0.6196185705355677
| 41> H -4.349021245577339 -3.6501771886581014 -1.5781268277548046
| 42> H -5.737595525078665 -1.622189787198194 -1.8112551971158957
| 43> H -1.9280588371654261 1.5545370448744624 -0.9179321534491206
| 44> H -1.6975164288331626 1.0891365775148572 0.7749894215707915
| 45> H -3.168577234241667 3.1058514488048488 0.46414853969817516
| 46> H -3.922230116449405 1.7982046181186517 1.395928373264552
| 47> H -5.900216059019917 0.7885396472920113 -1.6043819268350437
| 48> *
| 49>
| 50>                          ****END OF INPUT****

CARTESIAN COORDINATES (ANGSTROEM)
---------------------------------
  C      2.933200    2.213824    0.542499
  C      3.811320    0.984020    0.258707
  C      4.143822    0.910018   -1.240528
  C      5.128100    1.139776    1.044423
  N      3.187672   -0.261889    0.748726
  C      1.898074   -0.618899    0.126563
  C      1.342363   -1.878991    0.824287
  O      1.252827   -1.626844    2.234818
  C     -0.027004   -2.308700    0.277804
  O     -0.910917   -1.185551    0.231765
  C     -2.164614   -1.374632   -0.282944
  C     -2.678759   -2.605788   -0.701546
  C     -3.961589   -2.688657   -1.250113
  C     -4.743815   -1.543841   -1.379782
  C     -4.246779   -0.319111   -0.940108
  C     -2.961551   -0.221318   -0.388485
  C     -2.434099    1.146213   -0.034203
  C     -3.549395    2.080651    0.403884
  C     -4.721769    2.046902   -0.545380
  O     -5.426095    3.031038   -0.759587
  N     -5.035372    0.827202   -1.080987
  H      2.024966    2.222085   -0.069289
  H      3.475247    3.140733    0.320777
  H      2.632644    2.253752    1.595926
  H      4.722626    1.785927   -1.556273
  H      3.240450    0.881663   -1.859088
  H      4.740833    0.020717   -1.473415
  H      5.658815    2.052731    0.749943
  H      4.944935    1.199564    2.124021
  H      5.805277    0.295747    0.866448
  H      3.842687   -1.034652    0.614185
  H      2.012218   -0.816725   -0.943770
  H      1.190505    0.203496    0.266069
  H      2.043167   -2.713741    0.703172
  H      1.977099   -0.993253    2.419260
  H      0.109639   -2.707128   -0.734708
  H     -0.448834   -3.077336    0.936150
  H     -2.104675   -3.522907   -0.619619
  H     -4.349021   -3.650177   -1.578127
  H     -5.737596   -1.622190   -1.811255
  H     -1.928059    1.554537   -0.917932
  H     -1.697516    1.089137    0.774989
  H     -3.168577    3.105851    0.464149
  H     -3.922230    1.798205    1.395928
  H     -5.900216    0.788540   -1.604382

 Total Charge           Charge          ....    0
 Multiplicity           Mult            ....    1
 Number of Electrons    NEL             ....  158
 Basis Dimension        Dim             ....  414

ORBITAL ENERGIES
----------------

  NO   OCC          E(Eh)            E(eV)
   0   2.0000     -20.587066      -560.2025
   1   2.0000     -20.535102      -558.7885
   2   2.0000     -20.511883      -558.1567
   3   2.0000     -15.601199      -424.5302
   4   2.0000     -15.557239      -423.3340
   5   2.0000     -11.353940      -308.9564
   6   2.0000     -11.315720      -307.9164
   7   2.0000     -11.300340      -307.4979
   8   2.0000     -11.297729      -307.4268
   9   2.0000     -11.290444      -307.2286
  10   2.0000     -11.273581      -306.7697
  11   2.0000     -11.261292      -306.4353
  12   2.0000     -11.253989      -306.2366
  13   2.0000     -11.241638      -305.9005
  14   2.0000     -11.241282      -305.8908
  15   2.0000     -11.240662      -305.8740
  16   2.0000     -11.236738      -305.7672
  17   2.0000     -11.236220      -305.7531
  18   2.0000     -11.228431      -305.5411
  19   2.0000     -11.227968      -305.5285
  20   2.0000     -11.226711      -305.4943
  21   2.0000      -1.400875       -38.1197
  22   2.0000      -1.362341       -37.0712
  23   2.0000      -1.326917       -36.1073
  24   2.0000      -1.251931       -34.0668
  25   2.0000      -1.209873       -32.9223
  26   2.0000      -1.137938       -30.9649
  27   2.0000      -1.080305       -29.3966
  28   2.0000      -1.061503       -28.8850
  29   2.0000      -1.026778       -27.9400
  30   2.0000      -1.007907       -27.4265
  31   2.0000      -0.982930       -26.7469
  32   2.0000      -0.936420       -25.4813
  33   2.0000      -0.934138       -25.4192
  34   2.0000      -0.908596       -24.7242
  35   2.0000      -0.888439       -24.1757
  36   2.0000      -0.851423       -23.1684
  37   2.0000      -0.839064       -22.8321
  38   2.0000      -0.797828       -21.7100
  39   2.0000      -0.762078       -20.7372
  40   2.0000      -0.753572       -20.5057
  41   2.0000      -0.741264       -20.1708
  42   2.0000      -0.697834       -18.9890
  43   2.0000      -0.681872       -18.5547
  44   2.0000      -0.677106       -18.4250
  45   2.0000      -0.668792       -18.1988
  46   2.0000      -0.662277       -18.0215
  47   2.0000      -0.655841       -17.8463
  48   2.0000      -0.653050       -17.7704
  49   2.0000      -0.630487       -17.1564
  50   2.0000      -0.629290       -17.1238
  51   2.0000      -0.620082       -16.8733
  52   2.0000      -0.611682       -16.6447
  53   2.0000      -0.606667       -16.5082
  54   2.0000      -0.591372       -16.0920
  55   2.0000      -0.586734       -15.9659
  56   2.0000      -0.575638       -15.6639
  57   2.0000      -0.567812       -15.4510
  58   2.0000      -0.560000       -15.2384
  59   2.0000      -0.554342       -15.0844
  60   2.0000      -0.550097       -14.9689
  61   2.0000      -0.540791       -14.7157
  62   2.0000      -0.533451       -14.5160
  63   2.0000      -0.525375       -14.2962
  64   2.0000      -0.522076       -14.2064
  65   2.0000      -0.516335       -14.0502
  66   2.0000      -0.510204       -13.8834
  67   2.0000      -0.507863       -13.8196
  68   2.0000      -0.492895       -13.4123
  69   2.0000      -0.486662       -13.2427
  70   2.0000      -0.478669       -13.0253
  71   2.0000      -0.473096       -12.8736
  72   2.0000      -0.463018       -12.5994
  73   2.0000      -0.440653       -11.9908
  74   2.0000      -0.430912       -11.7257
  75   2.0000      -0.418006       -11.3745
  76   2.0000      -0.384855       -10.4724
  77   2.0000      -0.323990        -8.8162
  78   2.0000      -0.310890        -8.4598
  79   0.0000       0.118671         3.2292
  80   0.0000       0.138216         3.7611
  81   0.0000       0.152228         4.1423
  82   0.0000       0.169261         4.6058
  83   0.0000       0.176340         4.7985

MULLIKEN ATOMIC CHARGES
-----------------------
   0 C :    0.046837
   1 C :   -0.252606
   2 C :    0.048189
   3 C :    0.057589
   4 N :   -0.501466
   5 C :    0.161076
   6 C :    0.208085
   7 O :   -0.476074
   8 C :    0.271482
   9 O :   -0.575042
  10 C :    0.362789
  11 C :   -0.180609
  12 C :    0.032490
  13 C :   -0.105313
  14 C :    0.245381
  15 C :   -0.306027
  16 C :    0.115881
  17 C :   -0.072073
  18 C :    0.399051
  19 O :   -0.430852
  20 N :   -0.382858
  21 H :    0.031473
  22 H :    0.032284
  23 H :    0.040787
  24 H :    0.030252
  25 H :    0.033912
  26 H :    0.020570
  27 H :    0.027807
  28 H :    0.038728
  29 H :    0.020132
  30 H :    0.130144
  31 H :    0.014990
  32 H :    0.065524
  33 H :    0.010401
  34 H :    0.210377
  35 H :    0.030367
  36 H :    0.055724
  37 H :    0.035785
  38 H :    0.045972
  39 H :    0.021654
  40 H :    0.055888
  41 H :    0.066759
  42 H :    0.067046
  43 H :    0.079633
  44 H :    0.167862
Sum of atomic charges:   -0.0000000

LOEWDIN ATOMIC CHARGES
----------------------
   0 C :   -0.024203
   1 C :    0.003739
   2 C :   -0.034318
   3 C :   -0.023417
   4 N :   -0.153041
   5 C :    0.051000
   6 C :    0.100120
   7 O :   -0.211651
   8 C :    0.136491
   9 O :   -0.190033
  10 C :    0.120697
  11 C :   -0.108079
  12 C :    0.013285
  13 C :   -0.086614
  14 C :    0.069108
  15 C :   -0.097816
  16 C :   -0.001841
  17 C :   -0.032316
  18 C :    0.181636
  19 O :   -0.309282
  20 N :   -0.044101
  21 H :    0.013495
  22 H :    0.020694
  23 H :    0.020933
  24 H :    0.018772
  25 H :    0.013906
  26 H :    0.012020
  27 H :    0.015972
  28 H :    0.018849
  29 H :    0.011089
  30 H :    0.052865
  31 H :   -0.001253
  32 H :    0.020897
  33 H :    0.002169
  34 H :    0.077217
  35 H :    0.008274
  36 H :    0.018749
  37 H :    0.025389
  38 H :    0.031662
  39 H :    0.024042
  40 H :    0.025733
  41 H :    0.033169
  42 H :    0.039083
  43 H :    0.042295
  44 H :    0.094613

  Mayer bond orders larger than 0.100000
B(  0-C ,  1-C ) :   1.0064 B(  0-C , 21-H ) :   0.9815 B(  0-C , 22-H ) :   0.9829
B(  0-C , 23-H ) :   0.9812 B(  1-C ,  2-C ) :   0.9917 B(  1-C ,  3-C ) :   1.0184
B(  1-C ,  4-N ) :   0.9129 B(  2-C , 24-H ) :   0.9809 B(  2-C , 25-H ) :   0.9821
B(  2-C , 26-H ) :   0.9805 B(  3-C , 27-H ) :   0.9845 B(  3-C , 28-H ) :   0.9839
B(  3-C , 29-H ) :   0.9817 B(  4-N ,  5-C ) :   0.9268 B(  4-N , 30-H ) :   0.9465
B(  5-C ,  6-C ) :   1.0303 B(  5-C , 31-H ) :   0.9639 B(  5-C , 32-H ) :   0.9606
B(  6-C ,  7-O ) :   0.9522 B(  6-C ,  8-C ) :   1.0323 B(  6-C , 33-H ) :   0.9576
B(  7-O , 34-H ) :   0.9468 B(  8-C ,  9-O ) :   0.8488 B(  8-C , 35-H ) :   0.9659
B(  8-C , 36-H ) :   0.9724 B(  9-O , 10-C ) :   1.0190 B( 10-C , 11-C ) :   1.3690
B( 10-C , 15-C ) :   1.4735 B( 11-C , 12-C ) :   1.3852 B( 11-C , 37-H ) :   1.0100
B( 12-C , 13-C ) :   1.4404 B( 12-C , 38-H ) :   0.9957 B( 13-C , 14-C ) :   1.3702
B( 13-C , 39-H ) :   1.0089 B( 14-C , 15-C ) :   1.4183 B( 14-C , 20-N ) :   1.0067
B( 15-C , 16-C ) :   0.9496 B( 16-C , 17-C ) :   1.0285 B( 16-C , 40-H ) :   0.9712
B( 16-C , 41-H ) :   0.9553 B( 17-C , 18-C ) :   0.9723 B( 17-C , 42-H ) :   0.9706
B( 17-C , 43-H ) :   0.9572 B( 18-C , 19-O ) :   2.0034 B( 18-C , 20-N ) :   1.0820
B( 20-N , 44-H ) :   0.9256

FINAL SINGLE POINT ENERGY      -952.657433063594

DIPOLE MOMENT
-------------
                                X             Y             Z
Electronic contribution:    -34.38080      -5.19112      -2.16553
Nuclear contribution   :     36.02300       3.88222       1.37463
                        -----------------------------------------
Total Dipole Moment    :      1.64220      -1.30890      -0.79090
                        -----------------------------------------
Magnitude (a.u.)       :      2.24401
Magnitude (Debye)      :      5.70381

Rotational constants in cm-1:     0.016109     0.004578     0.003852
Rotational constants in MHz :   482.943193   137.251338   115.468587

                             ****ORCA TERMINATED NORMALLY****
TOTAL RUN TIME: 0 days 0 hours 0 minutes 25 seconds 343 msec
