                         Program Version 5.0.3 -  RELEASE  -
|  1> !RHF def2-SVP TightSCF PAL16
|  2> *xyz 0 1
|  3> O 4.4321652033246615 -1.6652811521676871 0.319465928275047
|  4> C 4.725559313358674 -0.48364244514584265 0.24912687664641758
|  5> O 5.989097837439796 -0.12921791538598257 -0.07176933894396695
|  6> C 3.8465290140330057 0.7147635074241029 0.5382759060896707
|  7> C 3.7279392185036677 1.6538563569962055 -0.6808296817838665
|  8> C 2.4728543456222685 1.2216577063212917 -1.4551203740022556
|  9> C 1.6261249947941034 0.6686651104838823 -0.3534736943074725
| 10> C 0.26505099804838206 0.4075048019272363 -0.37642950696511646
| 11> C -0.3604054344592514 -0.15265596022651962 0.7582754832689328
| 12> C -1.8596233090489147 -0.430801167207274 0.71958724521013
| 13> C -2.212923415140104 -1.4945474530293104 -0.33673699394025536
| 14> C -3.714663310994009 -1.775252348435284 -0.36589549938177895
| 15> C -4.5230348507662725 -0.49763810899481264 -0.5727410108827728
| 16> C -4.1782464977609735 0.5631227707630581 0.46864902162305105
| 17> C -2.6787253661966974 0.8555548254333949 0.49987504141445555
| 18> C 0.44100658323213704 -0.44588975062537917 1.8897398489571269
| 19> Cl -0.21299162244756267 -1.1409759033409266 3.3341750451608414
| 20> C 1.8195395059062252 -0.18782462839862693 1.8943569644492262
| 21> C 2.3992218622157697 0.369906524946006 0.7676926566303883
| 22> H 6.444515794429309 -0.9884694086892427 -0.20064563929594625
| 23> H 4.255425715619938 1.2476724772155583 1.4039188209084854
| 24> H 4.611791878886589 1.6643366814064704 -1.326669841618293
| 25> H 3.582692959129181 2.6824805851660183 -0.3208277763215152
| 26> H 2.0031927490760264 2.071505870168658 -1.9582051125091344
| 27> H 2.7060555254871095 0.43662058151978234 -2.1818082083337518
| 28> H -0.30566507730940806 0.6351233365164136 -1.2729335577246317
| 29> H -2.1843885961276075 -0.8348957397639234 1.6842390949987966
| 30> H -1.8963131949097325 -1.170456813053054 -1.3360093581735593
| 31> H -1.6742231859295438 -2.426615338692011 -0.12530583798963674
| 32> H -3.940167539355139 -2.487655371007558 -1.1674764248711877
| 33> H -4.015578384267229 -2.2495044946115677 0.5763802004723619
| 34> H -4.3266180986800125 -0.10056649474999112 -1.5763007447552688
| 35> H -5.593411056018066 -0.7272399811774589 -0.5240178232925266
| 36> H -4.728428773331606 1.4855253462408267 0.2510028323481861
| 37> H -4.504749077807376 0.22296314685445517 1.4591040591795565
| 38> H -2.466211441087416 1.5762120575901495 1.299311221078871
| 39> H -2.397400951222822 1.3418890641520813 -0.4423198929965871
| 40> H 2.425005683754634 -0.4302302764228851 2.7627472509265383
| 41> *
| 42>
| 43>                          ****END OF INPUT****

CARTESIAN COORDINATES (ANGSTROEM)
---------------------------------
  O      4.432165   -1.665281    0.319466
  C      4.725559   -0.483642    0.249127
  O      5.989098   -0.129218   -0.071769
  C      3.846529    0.714764    0.538276
  C      3.727939    1.653856   -0.680830
  C      2.472854    1.221658   -1.455120
  C      1.626125    0.668665   -0.353474
  C      0.265051    0.407505   -0.376430
  C     -0.360405   -0.152656    0.758275
  C     -1.859623   -0.430801    0.719587
  C     -2.212923   -1.494547   -0.336737
  C     -3.714663   -1.775252   -0.365895
  C     -4.523035   -0.497638   -0.572741
  C     -4.178246    0.563123    0.468649
  C     -2.678725    0.855555    0.499875
  C      0.441007   -0.445890    1.889740
  Cl    -0.212992   -1.140976    3.334175
  C      1.819540   -0.187825    1.894357
  C      2.399222    0.369907    0.767693
  H      6.444516   -0.988469   -0.200646
  H      4.255426    1.247672    1.403919
  H      4.611792    1.664337   -1.326670
  H      3.582693    2.682481   -0.320828
  H      2.003193    2.071506   -1.958205
  H      2.706056    0.436621   -2.181808
  H     -0.305665    0.635123   -1.272934
  H     -2.184389   -0.834896    1.684239
  H     -1.896313   -1.170457   -1.336009
  H     -1.674223   -2.426615   -0.125306
  H     -3.940168   -2.487655   -1.167476
  H     -4.015578   -2.249504    0.576380
  H     -4.326618   -0.100566   -1.576301
  H     -5.593411   -0.727240   -0.524018
  H     -4.728429    1.485525    0.251003
  H     -4.504749    0.222963    1.459104
  H     -2.466211    1.576212    1.299311
  H     -2.397401    1.341889   -0.442320
  H      2.425006   -0.430230    2.762747

 Total Charge           Charge          ....    0
 Multiplicity           Mult            ....    1
 Number of Electrons    NEL             ....  148
 Basis Dimension        Dim             ....  365

ORBITAL ENERGIES
----------------

  NO   OCC          E(Eh)            E(eV)
   0   2.0000    -104.789407     -2851.4647
   1   2.0000     -20.609889      -560.8236
   2   2.0000     -20.547856      -559.1356
   3   2.0000     -11.394234      -310.0529
   4   2.0000     -11.295507      -307.3664
   5   2.0000     -11.265511      -306.5501
   6   2.0000     -11.256946      -306.3171
   7   2.0000     -11.249586      -306.1168
   8   2.0000     -11.246810      -306.0413
   9   2.0000     -11.243245      -305.9443
  10   2.0000     -11.242500      -305.9240
  11   2.0000     -11.241372      -305.8933
  12   2.0000     -11.240819      -305.8782
  13   2.0000     -11.233539      -305.6801
  14   2.0000     -11.223146      -305.3973
  15   2.0000     -11.222105      -305.3690
  16   2.0000     -11.219840      -305.3074
  17   2.0000     -11.219218      -305.2904
  18   2.0000     -11.218663      -305.2753
  19   2.0000     -10.552946      -287.1603
  20   2.0000      -8.028060      -218.4546
  21   2.0000      -8.024561      -218.3594
  22   2.0000      -8.024457      -218.3566
  23   2.0000      -1.452512       -39.5248
  24   2.0000      -1.337077       -36.3837
  25   2.0000      -1.191329       -32.4177
  26   2.0000      -1.151243       -31.3269
  27   2.0000      -1.116983       -30.3946
  28   2.0000      -1.078389       -29.3445
  29   2.0000      -1.034127       -28.1400
  30   2.0000      -1.018052       -27.7026
  31   2.0000      -0.997197       -27.1351
  32   2.0000      -0.961603       -26.1665
  33   2.0000      -0.947723       -25.7888
  34   2.0000      -0.863518       -23.4975
  35   2.0000      -0.849826       -23.1249
  36   2.0000      -0.825262       -22.4565
  37   2.0000      -0.816072       -22.2064
  38   2.0000      -0.789089       -21.4722
  39   2.0000      -0.758029       -20.6270
  40   2.0000      -0.748349       -20.3636
  41   2.0000      -0.706942       -19.2369
  42   2.0000      -0.698802       -19.0154
  43   2.0000      -0.693536       -18.8721
  44   2.0000      -0.659549       -17.9472
  45   2.0000      -0.645766       -17.5722
  46   2.0000      -0.636506       -17.3202
  47   2.0000      -0.621981       -16.9250
  48   2.0000      -0.619138       -16.8476
  49   2.0000      -0.605266       -16.4701
  50   2.0000      -0.604758       -16.4563
  51   2.0000      -0.597337       -16.2544
  52   2.0000      -0.586962       -15.9720
  53   2.0000      -0.579515       -15.7694
  54   2.0000      -0.553188       -15.0530
  55   2.0000      -0.545563       -14.8455
  56   2.0000      -0.528699       -14.3866
  57   2.0000      -0.526092       -14.3157
  58   2.0000      -0.518462       -14.1081
  59   2.0000      -0.517861       -14.0917
  60   2.0000      -0.509043       -13.8518
  61   2.0000      -0.504328       -13.7235
  62   2.0000      -0.499910       -13.6032
  63   2.0000      -0.488283       -13.2869
  64   2.0000      -0.478386       -13.0176
  65   2.0000      -0.476771       -12.9736
  66   2.0000      -0.459721       -12.5096
  67   2.0000      -0.457519       -12.4497
  68   2.0000      -0.446248       -12.1430
  69   2.0000      -0.438517       -11.9327
  70   2.0000      -0.433055       -11.7840
  71   2.0000      -0.432560       -11.7706
  72   2.0000      -0.337573        -9.1858
  73   2.0000      -0.317306        -8.6343
  74   0.0000       0.111848         3.0435
  75   0.0000       0.128670         3.5013
  76   0.0000       0.151062         4.1106
  77   0.0000       0.172541         4.6951
  78   0.0000       0.184383         5.0173

MULLIKEN ATOMIC CHARGES
-----------------------
   0 O :   -0.394466
   1 C :    0.519624
   2 O :   -0.358532
   3 C :   -0.170667
   4 C :   -0.023409
   5 C :    0.121697
   6 C :   -0.157627
   7 C :   -0.017117
   8 C :   -0.075772
   9 C :   -0.137624
  10 C :    0.013675
  11 C :   -0.030480
  12 C :   -0.055546
  13 C :   -0.030885
  14 C :    0.012386
  15 C :    0.037206
  16 Cl:   -0.143263
  17 C :    0.046086
  18 C :   -0.076750
  19 H :    0.226471
  20 H :    0.087007
  21 H :    0.058175
  22 H :    0.055963
  23 H :    0.047935
  24 H :    0.058328
  25 H :    0.028019
  26 H :    0.043825
  27 H :    0.019539
  28 H :    0.041319
  29 H :    0.032320
  30 H :    0.025528
  31 H :    0.019726
  32 H :    0.032083
  33 H :    0.031448
  34 H :    0.025274
  35 H :    0.037229
  36 H :    0.018876
  37 H :    0.032398
Sum of atomic charges:   -0.0000000

LOEWDIN ATOMIC CHARGES
----------------------
   0 O :   -0.272690
   1 C :    0.213051
   2 O :   -0.112956
   3 C :   -0.040193
   4 C :    0.005974
   5 C :   -0.003153
   6 C :   -0.022847
   7 C :   -0.020154
   8 C :   -0.017927
   9 C :   -0.024025
  10 C :   -0.008744
  11 C :   -0.020427
  12 C :   -0.022656
  13 C :   -0.020433
  14 C :   -0.009543
  15 C :   -0.116276
  16 Cl:    0.093465
  17 C :   -0.014095
  18 C :   -0.036028
  19 H :    0.115229
  20 H :    0.044685
  21 H :    0.019732
  22 H :    0.025283
  23 H :    0.024310
  24 H :    0.026712
  25 H :    0.024828
  26 H :    0.010455
  27 H :    0.007697
  28 H :    0.019125
  29 H :    0.014969
  30 H :    0.011731
  31 H :    0.009174
  32 H :    0.014082
  33 H :    0.014571
  34 H :    0.011586
  35 H :    0.017326
  36 H :    0.007049
  37 H :    0.031112

  Mayer bond orders larger than 0.100000
B(  0-O ,  1-C ) :   2.0314 B(  1-C ,  2-O ) :   1.1259 B(  1-C ,  3-C ) :   0.9169
B(  2-O , 19-H ) :   0.9413 B(  3-C ,  4-C ) :   1.0385 B(  3-C , 18-C ) :   0.9336
B(  3-C , 20-H ) :   0.9394 B(  4-C ,  5-C ) :   1.0221 B(  4-C , 21-H ) :   0.9801
B(  4-C , 22-H ) :   0.9752 B(  5-C ,  6-C ) :   0.9649 B(  5-C , 23-H ) :   0.9718
B(  5-C , 24-H ) :   0.9553 B(  6-C ,  7-C ) :   1.4699 B(  6-C , 18-C ) :   1.4175
B(  7-C ,  8-C ) :   1.3967 B(  7-C , 25-H ) :   1.0063 B(  8-C ,  9-C ) :   0.9745
B(  8-C , 15-C ) :   1.4816 B(  9-C , 10-C ) :   0.9947 B(  9-C , 14-C ) :   0.9960
B(  9-C , 26-H ) :   0.9595 B( 10-C , 11-C ) :   1.0335 B( 10-C , 27-H ) :   0.9680
B( 10-C , 28-H ) :   0.9725 B( 11-C , 12-C ) :   1.0276 B( 11-C , 29-H ) :   0.9768
B( 11-C , 30-H ) :   0.9704 B( 12-C , 13-C ) :   1.0276 B( 12-C , 31-H ) :   0.9706
B( 12-C , 32-H ) :   0.9770 B( 13-C , 14-C ) :   1.0343 B( 13-C , 33-H ) :   0.9768
B( 13-C , 34-H ) :   0.9703 B( 14-C , 35-H ) :   0.9730 B( 14-C , 36-H ) :   0.9674
B( 15-C , 16-Cl) :   0.9482 B( 15-C , 17-C ) :   1.4088 B( 17-C , 18-C ) :   1.4465
B( 17-C , 37-H ) :   1.0044

FINAL SINGLE POINT ENERGY     -1225.505169409304

DIPOLE MOMENT
-------------
                                X             Y             Z
Electronic contribution:     21.04106      -5.68922      16.18638
Nuclear contribution   :    -20.81198       6.61130     -16.93234
                        -----------------------------------------
Total Dipole Moment    :      0.22909       0.92208      -0.74596
                        -----------------------------------------
Magnitude (a.u.)       :      1.20796
Magnitude (Debye)      :      3.07039

Rotational constants in cm-1:     0.022377     0.005799     0.005175
Rotational constants in MHz :   670.840198   173.843157   155.156878

                             ****ORCA TERMINATED NORMALLY****
TOTAL RUN TIME: 0 days 0 hours 0 minutes 21 seconds 906 msec
