                         Program Version 5.0.3 -  RELEASE  -
|  1> !RHF def2-SVP TightSCF PAL16
|  2> *xyz 0 1
|  3> O 0.15843398503044387 -0.26276540635956064 -1.8309299482097352
|  4> C -0.35576112554150746 -0.20785056684719347 -0.7204214284185534
|  5> O 0.27732274954725267 -0.552705607842455 0.43969759514060985
|  6> C 1.627512816530951 -1.0328390458359946 0.30230340494328384
|  7> C 2.6109392367574955 0.1448048946148757 0.2279457291105524
|  8> N 4.017985118917192 -0.2688313374030807 0.20607347030204182
|  9> C 4.481143643741494 -0.8430956198664223 1.4708742323854964
| 10> C 5.998553336359687 -0.7760960074526955 1.3590375620356774
| 11> C 6.278462020724882 0.298106088068985 0.3146832192315994
| 12> C 4.9138145717077455 0.8632091527921947 -0.042093949300437895
| 13> C -1.8149457357920378 0.2300266502250895 -0.44394906654227084
| 14> C -2.6133981604519363 -1.0362922226843745 -0.11398282248639315
| 15> C -2.82330700155224 -1.4591647913050867 1.2092201265659492
| 16> C -3.5241816883432584 -2.6359132973138784 1.48895064268978
| 17> C -4.011166301007547 -3.424513302826922 0.451506108290795
| 18> C -3.7856188470550713 -3.04434789943251 -0.8670618800565363
| 19> C -3.0852694412329265 -1.8684380976615633 -1.146829669632407
| 20> C -1.8344617588776986 1.3696754423793522 0.6342617166840474
| 21> C -2.3135232499836498 2.6177300272348094 -0.1359779074427508
| 22> C -3.8141980002943505 2.4748240528907957 -0.4249249415799107
| 23> C -3.8461033117683536 1.4032693338981528 -1.5197525660757885
| 24> C -2.356762211300735 1.0273443338925845 -1.6896920648073612
| 25> C -1.7020883949005716 2.404432624629025 -1.5129581862867825
| 26> H 1.8206228235669752 -1.6414253452448087 1.1915622968207666
| 27> H 1.720632505142867 -1.6959808874089113 -0.5663611573677846
| 28> H 2.4122592531446387 0.8374579701343207 1.0569721663094513
| 29> H 2.3901969092841133 0.7114453471106996 -0.6855685830784014
| 30> H 4.142891794847786 -1.8745464141771047 1.6092591513026315
| 31> H 4.148931429598347 -0.24817451113164066 2.3311946936045462
| 32> H 6.456113657477306 -0.5292791330900092 2.322672684095334
| 33> H 6.411302163277104 -1.735594501240298 1.0267566472176481
| 34> H 6.75053318852328 -0.1557074277675721 -0.5649139344188914
| 35> H 6.952139361662485 1.0722730009358137 0.6952145819856288
| 36> H 4.680476834369598 1.7150273475923654 0.6096932675724595
| 37> H 4.877766121926566 1.19850083378542 -1.0834395529234628
| 38> H -2.4277974554568216 -0.8945320673330032 2.049677829650236
| 39> H -3.679518401868318 -2.9411071447993304 2.5206473084193552
| 40> H -4.552675978444225 -4.340786871947672 0.6700401550618478
| 41> H -4.147126168094879 -3.666309380757267 -1.6819567655982295
| 42> H -2.9071671135145483 -1.614896699210742 -2.1902190515523867
| 43> H -2.5025920679915883 1.1821757756617157 1.479305829319187
| 44> H -0.8354001031486924 1.5668217419924524 1.039938871861163
| 45> H -2.053593103846181 3.5573843629009056 0.35567783633880995
| 46> H -4.387487626833077 2.1785792221217433 0.45919310759851284
| 47> H -4.232321103036978 3.4141549325196885 -0.803808880025944
| 48> H -4.2358125300804845 1.8346862529320687 -2.4496694768876925
| 49> H -4.494591025841473 0.5657158666474466 -1.2526710646014487
| 50> H -2.1444656418731047 0.5629393692434087 -2.656420659762999
| 51> H -0.6082311487190608 2.3819691962558083 -1.5019418445962083
| 52> H -2.038468825291218 3.1386397664666674 -2.2531909093520226
| 53> *
| 54>
| 55>                          ****END OF INPUT****

CARTESIAN COORDINATES (ANGSTROEM)
---------------------------------
  O      0.158434   -0.262765   -1.830930
  C     -0.355761   -0.207851   -0.720421
  O      0.277323   -0.552706    0.439698
  C      1.627513   -1.032839    0.302303
  C      2.610939    0.144805    0.227946
  N      4.017985   -0.268831    0.206073
  C      4.481144   -0.843096    1.470874
  C      5.998553   -0.776096    1.359038
  C      6.278462    0.298106    0.314683
  C      4.913815    0.863209   -0.042094
  C     -1.814946    0.230027   -0.443949
  C     -2.613398   -1.036292   -0.113983
  C     -2.823307   -1.459165    1.209220
  C     -3.524182   -2.635913    1.488951
  C     -4.011166   -3.424513    0.451506
  C     -3.785619   -3.044348   -0.867062
  C     -3.085269   -1.868438   -1.146830
  C     -1.834462    1.369675    0.634262
  C     -2.313523    2.617730   -0.135978
  C     -3.814198    2.474824   -0.424925
  C     -3.846103    1.403269   -1.519753
  C     -2.356762    1.027344   -1.689692
  C     -1.702088    2.404433   -1.512958
  H      1.820623   -1.641425    1.191562
  H      1.720633   -1.695981   -0.566361
  H      2.412259    0.837458    1.056972
  H      2.390197    0.711445   -0.685569
  H      4.142892   -1.874546    1.609259
  H      4.148931   -0.248175    2.331195
  H      6.456114   -0.529279    2.322673
  H      6.411302   -1.735595    1.026757
  H      6.750533   -0.155707   -0.564914
  H      6.952139    1.072273    0.695215
  H      4.680477    1.715027    0.609693
  H      4.877766    1.198501   -1.083440
  H     -2.427797   -0.894532    2.049678
  H     -3.679518   -2.941107    2.520647
  H     -4.552676   -4.340787    0.670040
  H     -4.147126   -3.666309   -1.681957
  H     -2.907167   -1.614897   -2.190219
  H     -2.502592    1.182176    1.479306
  H     -0.835400    1.566822    1.039939
  H     -2.053593    3.557384    0.355678
  H     -4.387488    2.178579    0.459193
  H     -4.232321    3.414155   -0.803809
  H     -4.235813    1.834686   -2.449669
  H     -4.494591    0.565716   -1.252671
  H     -2.144466    0.562939   -2.656421
  H     -0.608231    2.381969   -1.501942
  H     -2.038469    3.138640   -2.253191

 Total Charge           Charge          ....    0
 Multiplicity           Mult            ....    1
 Number of Electrons    NEL             ....  170
 Basis Dimension        Dim             ....  457

ORBITAL ENERGIES
----------------

  NO   OCC          E(Eh)            E(eV)
   0   2.0000     -20.596531      -560.4601
   1   2.0000     -20.541880      -558.9730
   2   2.0000     -15.545494      -423.0144
   3   2.0000     -11.387155      -309.8602
   4   2.0000     -11.288522      -307.1763
   5   2.0000     -11.263201      -306.4873
   6   2.0000     -11.253203      -306.2152
   7   2.0000     -11.251570      -306.1708
   8   2.0000     -11.249104      -306.1037
   9   2.0000     -11.247879      -306.0703
  10   2.0000     -11.239690      -305.8475
  11   2.0000     -11.239655      -305.8466
  12   2.0000     -11.238525      -305.8158
  13   2.0000     -11.238035      -305.8025
  14   2.0000     -11.236879      -305.7710
  15   2.0000     -11.230588      -305.5998
  16   2.0000     -11.229949      -305.5824
  17   2.0000     -11.222978      -305.3928
  18   2.0000     -11.219909      -305.3092
  19   2.0000     -11.218587      -305.2733
  20   2.0000     -11.217215      -305.2359
  21   2.0000     -11.216491      -305.2162
  22   2.0000     -11.215350      -305.1852
  23   2.0000      -1.433750       -39.0143
  24   2.0000      -1.334965       -36.3262
  25   2.0000      -1.232851       -33.5476
  26   2.0000      -1.175638       -31.9907
  27   2.0000      -1.139909       -31.0185
  28   2.0000      -1.062254       -28.9054
  29   2.0000      -1.047701       -28.5094
  30   2.0000      -1.005011       -27.3477
  31   2.0000      -0.994469       -27.0609
  32   2.0000      -0.980601       -26.6835
  33   2.0000      -0.972555       -26.4646
  34   2.0000      -0.966058       -26.2878
  35   2.0000      -0.936748       -25.4902
  36   2.0000      -0.876264       -23.8443
  37   2.0000      -0.846558       -23.0360
  38   2.0000      -0.820406       -22.3244
  39   2.0000      -0.803204       -21.8563
  40   2.0000      -0.785676       -21.3793
  41   2.0000      -0.781530       -21.2665
  42   2.0000      -0.766131       -20.8475
  43   2.0000      -0.747574       -20.3425
  44   2.0000      -0.726856       -19.7788
  45   2.0000      -0.710644       -19.3376
  46   2.0000      -0.699114       -19.0239
  47   2.0000      -0.683946       -18.6111
  48   2.0000      -0.673740       -18.3334
  49   2.0000      -0.662839       -18.0368
  50   2.0000      -0.656608       -17.8672
  51   2.0000      -0.648495       -17.6465
  52   2.0000      -0.627369       -17.0716
  53   2.0000      -0.625996       -17.0342
  54   2.0000      -0.623836       -16.9754
  55   2.0000      -0.613397       -16.6914
  56   2.0000      -0.601416       -16.3654
  57   2.0000      -0.591304       -16.0902
  58   2.0000      -0.585979       -15.9453
  59   2.0000      -0.568172       -15.4607
  60   2.0000      -0.561216       -15.2715
  61   2.0000      -0.550490       -14.9796
  62   2.0000      -0.543767       -14.7966
  63   2.0000      -0.540132       -14.6977
  64   2.0000      -0.519637       -14.1400
  65   2.0000      -0.515162       -14.0183
  66   2.0000      -0.506353       -13.7786
  67   2.0000      -0.503773       -13.7084
  68   2.0000      -0.497634       -13.5413
  69   2.0000      -0.492766       -13.4088
  70   2.0000      -0.490172       -13.3383
  71   2.0000      -0.482877       -13.1398
  72   2.0000      -0.479633       -13.0515
  73   2.0000      -0.477488       -12.9931
  74   2.0000      -0.472005       -12.8439
  75   2.0000      -0.468792       -12.7565
  76   2.0000      -0.460158       -12.5215
  77   2.0000      -0.459240       -12.4966
  78   2.0000      -0.448944       -12.2164
  79   2.0000      -0.445226       -12.1152
  80   2.0000      -0.433752       -11.8030
  81   2.0000      -0.424818       -11.5599
  82   2.0000      -0.363072        -9.8797
  83   2.0000      -0.336810        -9.1651
  84   2.0000      -0.331557        -9.0221
  85   0.0000       0.121529         3.3070
  86   0.0000       0.128956         3.5091
  87   0.0000       0.166462         4.5297
  88   0.0000       0.171646         4.6707
  89   0.0000       0.185078         5.0362

MULLIKEN ATOMIC CHARGES
-----------------------
   0 O :   -0.415815
   1 C :    0.672182
   2 O :   -0.567517
   3 C :    0.309891
   4 C :    0.126214
   5 N :   -0.677250
   6 C :    0.186793
   7 C :   -0.072504
   8 C :   -0.056739
   9 C :    0.185095
  10 C :   -0.421272
  11 C :   -0.065865
  12 C :   -0.012217
  13 C :   -0.037176
  14 C :   -0.031845
  15 C :   -0.032448
  16 C :   -0.011757
  17 C :    0.224288
  18 C :   -0.299512
  19 C :    0.045658
  20 C :    0.088852
  21 C :   -0.186647
  22 C :    0.076512
  23 H :    0.037066
  24 H :    0.060930
  25 H :    0.010182
  26 H :    0.047536
  27 H :    0.035391
  28 H :    0.004477
  29 H :    0.032653
  30 H :    0.038758
  31 H :    0.040135
  32 H :    0.031985
  33 H :    0.003312
  34 H :    0.037906
  35 H :    0.043051
  36 H :    0.038148
  37 H :    0.039885
  38 H :    0.040037
  39 H :    0.047939
  40 H :    0.034690
  41 H :    0.049225
  42 H :    0.026506
  43 H :    0.027248
  44 H :    0.030078
  45 H :    0.033969
  46 H :    0.045950
  47 H :    0.053455
  48 H :    0.043662
  49 H :    0.038905
Sum of atomic charges:    0.0000000

LOEWDIN ATOMIC CHARGES
----------------------
   0 O :   -0.273035
   1 C :    0.242821
   2 O :   -0.189618
   3 C :    0.140130
   4 C :    0.048938
   5 N :   -0.201497
   6 C :    0.060125
   7 C :   -0.023211
   8 C :   -0.023460
   9 C :    0.065998
  10 C :   -0.053646
  11 C :   -0.022724
  12 C :   -0.016067
  13 C :   -0.026396
  14 C :   -0.025925
  15 C :   -0.025236
  16 C :   -0.013582
  17 C :    0.012694
  18 C :   -0.025874
  19 C :   -0.013197
  20 C :   -0.010709
  21 C :   -0.008360
  22 C :   -0.008503
  23 H :    0.013783
  24 H :    0.022054
  25 H :   -0.007175
  26 H :    0.018366
  27 H :    0.008912
  28 H :   -0.008492
  29 H :    0.014775
  30 H :    0.018229
  31 H :    0.018836
  32 H :    0.014275
  33 H :   -0.008955
  34 H :    0.013399
  35 H :    0.026852
  36 H :    0.026432
  37 H :    0.026006
  38 H :    0.027467
  39 H :    0.029710
  40 H :    0.014823
  41 H :    0.017702
  42 H :    0.007445
  43 H :    0.010259
  44 H :    0.012173
  45 H :    0.016332
  46 H :    0.014972
  47 H :    0.014837
  48 H :    0.012316
  49 H :    0.014999

  Mayer bond orders larger than 0.100000
B(  0-O ,  1-C ) :   1.9555 B(  1-C ,  2-O ) :   1.0735 B(  1-C , 10-C ) :   0.8808
B(  2-O ,  3-C ) :   0.7976 B(  3-C ,  4-C ) :   1.0460 B(  3-C , 23-H ) :   0.9807
B(  3-C , 24-H ) :   0.9703 B(  4-C ,  5-N ) :   0.9399 B(  4-C , 25-H ) :   0.9649
B(  4-C , 26-H ) :   0.9743 B(  5-N ,  6-C ) :   0.9179 B(  5-N ,  9-C ) :   0.9208
B(  6-C ,  7-C ) :   1.0638 B(  6-C , 27-H ) :   0.9744 B(  6-C , 28-H ) :   0.9645
B(  7-C ,  8-C ) :   1.0362 B(  7-C , 29-H ) :   0.9742 B(  7-C , 30-H ) :   0.9702
B(  8-C ,  9-C ) :   1.0627 B(  8-C , 31-H ) :   0.9677 B(  8-C , 32-H ) :   0.9766
B(  9-C , 33-H ) :   0.9642 B(  9-C , 34-H ) :   0.9761 B( 10-C , 11-C ) :   0.9468
B( 10-C , 17-C ) :   0.9627 B( 10-C , 21-C ) :   0.9594 B( 11-C , 12-C ) :   1.4374
B( 11-C , 16-C ) :   1.4179 B( 12-C , 13-C ) :   1.4243 B( 12-C , 35-H ) :   0.9965
B( 13-C , 14-C ) :   1.4156 B( 13-C , 36-H ) :   0.9981 B( 14-C , 15-C ) :   1.4075
B( 14-C , 37-H ) :   0.9997 B( 15-C , 16-C ) :   1.4324 B( 15-C , 38-H ) :   0.9994
B( 16-C , 39-H ) :   0.9985 B( 17-C , 18-C ) :   0.9969 B( 17-C , 40-H ) :   0.9610
B( 17-C , 41-H ) :   0.9688 B( 18-C , 19-C ) :   0.9901 B( 18-C , 22-C ) :   0.9588
B( 18-C , 42-H ) :   0.9819 B( 19-C , 20-C ) :   1.0313 B( 19-C , 43-H ) :   0.9683
B( 19-C , 44-H ) :   0.9719 B( 20-C , 21-C ) :   1.0078 B( 20-C , 45-H ) :   0.9726
B( 20-C , 46-H ) :   0.9613 B( 21-C , 22-C ) :   0.9746 B( 21-C , 47-H ) :   0.9653
B( 22-C , 48-H ) :   0.9831 B( 22-C , 49-H ) :   0.9836

FINAL SINGLE POINT ENERGY      -976.529113191854

DIPOLE MOMENT
-------------
                                X             Y             Z
Electronic contribution:    -12.96861      -8.44793      -3.28441
Nuclear contribution   :     12.98392       8.66709       4.15460
                        -----------------------------------------
Total Dipole Moment    :      0.01531       0.21916       0.87019
                        -----------------------------------------
Magnitude (a.u.)       :      0.89749
Magnitude (Debye)      :      2.28125

Rotational constants in cm-1:     0.014657     0.004326     0.003687
Rotational constants in MHz :   439.393090   129.675540   110.540299

                             ****ORCA TERMINATED NORMALLY****
TOTAL RUN TIME: 0 days 0 hours 0 minutes 37 seconds 455 msec
