                         Program Version 5.0.3 -  RELEASE  -
|  1> !RHF def2-SVP TightSCF PAL16
|  2> *xyz 0 1
|  3> C 2.1185539753169516 1.5905002683410827 -0.5911282041294752
|  4> C 2.0628529887259606 0.20379648278303839 0.06906631430969283
|  5> C 0.7956645782369518 -0.6251207612291607 -0.3131521306678929
|  6> C -0.552558812032059 -0.3934687472237743 0.47953426155388956
|  7> C -0.350927423561566 -0.9023961272889497 1.9570557337216545
|  8> N -1.4650107533977443 -0.9858893317032557 2.7546876560325386
|  9> O 0.7318644221274397 -1.1958733228456844 2.4593339860339243
| 10> C -0.9148058516716847 1.1148999159994226 0.40766576646083996
| 11> C -1.2460272745270846 1.6990280442148968 -0.8361368488050072
| 12> C -1.5840761897258337 3.050132975888402 -0.9374516815480908
| 13> C -1.5891179720321236 3.8520807554297702 0.1987413186667526
| 14> C -1.2514394798089088 3.304700098870174 1.433233835083362
| 15> C -0.9137252399995162 1.9516101871486022 1.538054915621096
| 16> C -1.6946305469493568 -1.2901680239753124 -0.13909450361046446
| 17> C -3.0391146451875253 -0.8578683369741176 -0.1705110923454565
| 18> C -4.057070557586256 -1.6692818098622622 -0.6797763007420758
| 19> C -3.762990151247666 -2.9421941834899448 -1.1533718817238419
| 20> C -2.4534711465442114 -3.406947992084469 -1.1076904475605343
| 21> C -1.4334979003997388 -2.595725618165998 -0.5993133773242173
| 22> N 3.2573416737408722 -0.6219369611420347 -0.2617439239038107
| 23> C 4.425826196756034 -0.25121851068185064 0.5347215743078426
| 24> C 3.5923663016039824 -0.6856008830812003 -1.6817283869045045
| 25> H 3.111946456484638 2.042688591246338 -0.5026463674076468
| 26> H 1.4410118964552905 2.2921981415593993 -0.10309083601550391
| 27> H 1.8625286417265647 1.5480091068477457 -1.6548776974404613
| 28> H 2.0545321198865767 0.3583879217374804 1.1530280628386058
| 29> H 0.6096549941527112 -0.5141461133861718 -1.3906745520297106
| 30> H 1.0739534224871035 -1.677790565290668 -0.16868337959320578
| 31> H -1.3188402051478993 -1.4301318431871064 3.6519871880273627
| 32> H -2.381351335347378 -1.0910964661019826 2.339825964768838
| 33> H -1.2480620727469673 1.0954100474808903 -1.7429126472788097
| 34> H -1.83997619179541 3.4743646799128745 -1.9048651405966395
| 35> H -1.8485489409449762 4.9045881050790365 0.12224104353079053
| 36> H -1.2434180296920367 3.9330186892149537 2.32066031160911
| 37> H -0.6393281737768858 1.5780825384363222 2.5222037100079056
| 38> H -3.3228096767973785 0.12338685519766117 0.20690962973765728
| 39> H -5.080838296174155 -1.3040259812338546 -0.7026259224408297
| 40> H -4.553063134024016 -3.5745462477940197 -1.549246916186274
| 41> H -2.2203555941920206 -4.408210595144334 -1.4622570030577424
| 42> H -0.43456153482597343 -3.023037611077233 -0.5612367428778957
| 43> H 5.2438707627453125 -0.9607421168574221 0.36565225846747496
| 44> H 4.7951806058566335 0.7524472515558832 0.30066649862875994
| 45> H 4.197392148047882 -0.29566431091848344 1.6053581393896412
| 46> H 3.956856997478037 0.2700970319987237 -2.07349844989335
| 47> H 4.374730248529529 -1.434464099520729 -1.850823918827107
| 48> H 2.733488699777173 -1.0018811286832299 -2.2820898158869145
| 49> *
| 50>
| 51>                          ****END OF INPUT****

CARTESIAN COORDINATES (ANGSTROEM)
---------------------------------
  C      2.118554    1.590500   -0.591128
  C      2.062853    0.203796    0.069066
  C      0.795665   -0.625121   -0.313152
  C     -0.552559   -0.393469    0.479534
  C     -0.350927   -0.902396    1.957056
  N     -1.465011   -0.985889    2.754688
  O      0.731864   -1.195873    2.459334
  C     -0.914806    1.114900    0.407666
  C     -1.246027    1.699028   -0.836137
  C     -1.584076    3.050133   -0.937452
  C     -1.589118    3.852081    0.198741
  C     -1.251439    3.304700    1.433234
  C     -0.913725    1.951610    1.538055
  C     -1.694631   -1.290168   -0.139095
  C     -3.039115   -0.857868   -0.170511
  C     -4.057071   -1.669282   -0.679776
  C     -3.762990   -2.942194   -1.153372
  C     -2.453471   -3.406948   -1.107690
  C     -1.433498   -2.595726   -0.599313
  N      3.257342   -0.621937   -0.261744
  C      4.425826   -0.251219    0.534722
  C      3.592366   -0.685601   -1.681728
  H      3.111946    2.042689   -0.502646
  H      1.441012    2.292198   -0.103091
  H      1.862529    1.548009   -1.654878
  H      2.054532    0.358388    1.153028
  H      0.609655   -0.514146   -1.390675
  H      1.073953   -1.677791   -0.168683
  H     -1.318840   -1.430132    3.651987
  H     -2.381351   -1.091096    2.339826
  H     -1.248062    1.095410   -1.742913
  H     -1.839976    3.474365   -1.904865
  H     -1.848549    4.904588    0.122241
  H     -1.243418    3.933019    2.320660
  H     -0.639328    1.578083    2.522204
  H     -3.322810    0.123387    0.206910
  H     -5.080838   -1.304026   -0.702626
  H     -4.553063   -3.574546   -1.549247
  H     -2.220356   -4.408211   -1.462257
  H     -0.434562   -3.023038   -0.561237
  H      5.243871   -0.960742    0.365652
  H      4.795181    0.752447    0.300666
  H      4.197392   -0.295664    1.605358
  H      3.956857    0.270097   -2.073498
  H      4.374730   -1.434464   -1.850824
  H      2.733489   -1.001881   -2.282090

 Total Charge           Charge          ....    0
 Multiplicity           Mult            ....    1
 Number of Electrons    NEL             ....  160
 Basis Dimension        Dim             ....  428

ORBITAL ENERGIES
----------------

  NO   OCC          E(Eh)            E(eV)
   0   2.0000     -20.515071      -558.2435
   1   2.0000     -15.576486      -423.8577
   2   2.0000     -15.525558      -422.4719
   3   2.0000     -11.357921      -309.0647
   4   2.0000     -11.281020      -306.9722
   5   2.0000     -11.264230      -306.5153
   6   2.0000     -11.258080      -306.3479
   7   2.0000     -11.248527      -306.0880
   8   2.0000     -11.248185      -306.0787
   9   2.0000     -11.247332      -306.0555
  10   2.0000     -11.246692      -306.0381
  11   2.0000     -11.244902      -305.9893
  12   2.0000     -11.244276      -305.9723
  13   2.0000     -11.243318      -305.9462
  14   2.0000     -11.242944      -305.9361
  15   2.0000     -11.242700      -305.9294
  16   2.0000     -11.242202      -305.9159
  17   2.0000     -11.240942      -305.8816
  18   2.0000     -11.237634      -305.7916
  19   2.0000     -11.232791      -305.6598
  20   2.0000     -11.225310      -305.4562
  21   2.0000     -11.201955      -304.8207
  22   2.0000      -1.360983       -37.0342
  23   2.0000      -1.193552       -32.4782
  24   2.0000      -1.187150       -32.3040
  25   2.0000      -1.157271       -31.4909
  26   2.0000      -1.143869       -31.1262
  27   2.0000      -1.079850       -29.3842
  28   2.0000      -1.013549       -27.5801
  29   2.0000      -1.011192       -27.5159
  30   2.0000      -1.007849       -27.4250
  31   2.0000      -1.001203       -27.2441
  32   2.0000      -0.955403       -25.9978
  33   2.0000      -0.926955       -25.2237
  34   2.0000      -0.892252       -24.2794
  35   2.0000      -0.847121       -23.0513
  36   2.0000      -0.834132       -22.6979
  37   2.0000      -0.824877       -22.4460
  38   2.0000      -0.813932       -22.1482
  39   2.0000      -0.806156       -21.9366
  40   2.0000      -0.759743       -20.6737
  41   2.0000      -0.743504       -20.2318
  42   2.0000      -0.718666       -19.5559
  43   2.0000      -0.708935       -19.2911
  44   2.0000      -0.692159       -18.8346
  45   2.0000      -0.661862       -18.0102
  46   2.0000      -0.644646       -17.5417
  47   2.0000      -0.637113       -17.3367
  48   2.0000      -0.631475       -17.1833
  49   2.0000      -0.630728       -17.1630
  50   2.0000      -0.622039       -16.9266
  51   2.0000      -0.617365       -16.7994
  52   2.0000      -0.608222       -16.5506
  53   2.0000      -0.594855       -16.1868
  54   2.0000      -0.593552       -16.1514
  55   2.0000      -0.591537       -16.0966
  56   2.0000      -0.582340       -15.8463
  57   2.0000      -0.563947       -15.3458
  58   2.0000      -0.554974       -15.1016
  59   2.0000      -0.544127       -14.8065
  60   2.0000      -0.534489       -14.5442
  61   2.0000      -0.529781       -14.4161
  62   2.0000      -0.519783       -14.1440
  63   2.0000      -0.512629       -13.9493
  64   2.0000      -0.509070       -13.8525
  65   2.0000      -0.501964       -13.6591
  66   2.0000      -0.500112       -13.6087
  67   2.0000      -0.497270       -13.5314
  68   2.0000      -0.496902       -13.5214
  69   2.0000      -0.488046       -13.2804
  70   2.0000      -0.470613       -12.8060
  71   2.0000      -0.457009       -12.4358
  72   2.0000      -0.448981       -12.2174
  73   2.0000      -0.422594       -11.4994
  74   2.0000      -0.405865       -11.0442
  75   2.0000      -0.350075        -9.5260
  76   2.0000      -0.344293        -9.3687
  77   2.0000      -0.340635        -9.2691
  78   2.0000      -0.334649        -9.1062
  79   2.0000      -0.326099        -8.8736
  80   0.0000       0.109767         2.9869
  81   0.0000       0.115581         3.1451
  82   0.0000       0.125287         3.4092
  83   0.0000       0.133233         3.6254
  84   0.0000       0.176980         4.8159

MULLIKEN ATOMIC CHARGES
-----------------------
   0 C :    0.016897
   1 C :    0.028453
   2 C :    0.131376
   3 C :   -0.278238
   4 C :    0.485166
   5 N :   -0.292463
   6 O :   -0.424057
   7 C :   -0.092294
   8 C :   -0.018766
   9 C :   -0.034362
  10 C :   -0.033640
  11 C :   -0.025727
  12 C :   -0.031687
  13 C :   -0.098743
  14 C :   -0.054069
  15 C :   -0.027753
  16 C :   -0.031335
  17 C :   -0.030288
  18 C :   -0.031905
  19 N :   -0.631676
  20 C :    0.164500
  21 C :    0.164064
  22 H :    0.024581
  23 H :    0.053924
  24 H :    0.013495
  25 H :    0.053848
  26 H :    0.026338
  27 H :    0.062875
  28 H :    0.162471
  29 H :    0.164043
  30 H :    0.047876
  31 H :    0.041309
  32 H :    0.041132
  33 H :    0.041139
  34 H :    0.059130
  35 H :    0.064365
  36 H :    0.042742
  37 H :    0.042938
  38 H :    0.044045
  39 H :    0.051299
  40 H :    0.022893
  41 H :   -0.006924
  42 H :    0.040865
  43 H :    0.002809
  44 H :    0.028012
  45 H :    0.021343
Sum of atomic charges:    0.0000000

LOEWDIN ATOMIC CHARGES
----------------------
   0 C :   -0.045691
   1 C :    0.060115
   2 C :    0.003786
   3 C :   -0.039741
   4 C :    0.193187
   5 N :   -0.058253
   6 O :   -0.301792
   7 C :   -0.021416
   8 C :   -0.011796
   9 C :   -0.025255
  10 C :   -0.027657
  11 C :   -0.024657
  12 C :   -0.026837
  13 C :   -0.026985
  14 C :   -0.032106
  15 C :   -0.025462
  16 C :   -0.025361
  17 C :   -0.020670
  18 C :   -0.017311
  19 N :   -0.199386
  20 C :    0.056542
  21 C :    0.053548
  22 H :    0.012755
  23 H :    0.020689
  24 H :    0.008302
  25 H :    0.017556
  26 H :    0.009860
  27 H :    0.023429
  28 H :    0.083449
  29 H :    0.074998
  30 H :    0.027301
  31 H :    0.028041
  32 H :    0.026633
  33 H :    0.028080
  34 H :    0.030369
  35 H :    0.030322
  36 H :    0.028498
  37 H :    0.027371
  38 H :    0.029225
  39 H :    0.031153
  40 H :    0.009991
  41 H :   -0.013264
  42 H :    0.017386
  43 H :   -0.009151
  44 H :    0.011810
  45 H :    0.008395

  Mayer bond orders larger than 0.100000
B(  0-C ,  1-C ) :   1.0142 B(  0-C , 22-H ) :   0.9838 B(  0-C , 23-H ) :   0.9793
B(  0-C , 24-H ) :   0.9734 B(  1-C ,  2-C ) :   0.9952 B(  1-C , 19-N ) :   0.9482
B(  1-C , 25-H ) :   0.9669 B(  2-C ,  3-C ) :   1.0283 B(  2-C , 26-H ) :   0.9622
B(  2-C , 27-H ) :   0.9524 B(  3-C ,  4-C ) :   0.8776 B(  3-C ,  7-C ) :   0.9297
B(  3-C , 13-C ) :   0.9463 B(  4-C ,  5-N ) :   1.1730 B(  4-C ,  6-O ) :   1.9860
B(  5-N , 28-H ) :   0.9515 B(  5-N , 29-H ) :   0.9432 B(  7-C ,  8-C ) :   1.4103
B(  7-C , 12-C ) :   1.4659 B(  8-C ,  9-C ) :   1.4500 B(  8-C , 30-H ) :   1.0018
B(  9-C , 10-C ) :   1.3924 B(  9-C , 31-H ) :   1.0006 B( 10-C , 11-C ) :   1.4261
B( 10-C , 32-H ) :   1.0001 B( 11-C , 12-C ) :   1.4096 B( 11-C , 33-H ) :   0.9973
B( 12-C , 34-H ) :   0.9863 B( 13-C , 14-C ) :   1.4277 B( 13-C , 18-C ) :   1.4234
B( 14-C , 15-C ) :   1.4263 B( 14-C , 35-H ) :   0.9957 B( 15-C , 16-C ) :   1.4090
B( 15-C , 36-H ) :   1.0000 B( 16-C , 17-C ) :   1.4122 B( 16-C , 37-H ) :   0.9999
B( 17-C , 18-C ) :   1.4323 B( 17-C , 38-H ) :   0.9982 B( 18-C , 39-H ) :   1.0002
B( 19-N , 20-C ) :   0.9526 B( 19-N , 21-C ) :   0.9439 B( 20-C , 40-H ) :   0.9911
B( 20-C , 41-H ) :   0.9748 B( 20-C , 42-H ) :   0.9914 B( 21-C , 43-H ) :   0.9743
B( 21-C , 44-H ) :   0.9907 B( 21-C , 45-H ) :   0.9917

FINAL SINGLE POINT ENERGY      -916.539485181125

DIPOLE MOMENT
-------------
                                X             Y             Z
Electronic contribution:    -17.43033      -3.25696       6.57887
Nuclear contribution   :     16.07624       3.52119      -7.03978
                        -----------------------------------------
Total Dipole Moment    :     -1.35409       0.26423      -0.46090
                        -----------------------------------------
Magnitude (a.u.)       :      1.45458
Magnitude (Debye)      :      3.69725

Rotational constants in cm-1:     0.010990     0.007982     0.006158
Rotational constants in MHz :   329.462053   239.287065   184.597619

                             ****ORCA TERMINATED NORMALLY****
TOTAL RUN TIME: 0 days 0 hours 0 minutes 35 seconds 401 msec
