                         Program Version 5.0.3 -  RELEASE  -
|  1> !RHF def2-SVP TightSCF PAL16
|  2> *xyz 0 1
|  3> C -6.189026801146262 2.0592806791532188 2.181500124821932
|  4> C -5.219839337233693 2.2529846378613803 1.2771722390977172
|  5> C -4.973761787942709 1.3612978946834418 0.09308692539972713
|  6> C -3.5812294252967924 0.7754293904902051 0.0965124761665065
|  7> C -2.572819077772845 1.32724167348254 -0.6996197326966143
|  8> C -1.2830279939514333 0.7891444862572262 -0.6867389886841829
|  9> C -0.9793231371384182 -0.3063668686146732 0.12865528676476304
| 10> O 0.2563532243833959 -0.9017022606778845 0.2034403217795962
| 11> C 1.315814721545792 -0.32632535847004746 -0.5465292949883783
| 12> C 2.640525309798711 -1.080130926435458 -0.3448076585495003
| 13> O 2.6974619365747263 -2.142019372318924 0.2785990604647629
| 14> N 3.78657126851062 -0.5103907531481912 -0.9136002495852276
| 15> C 5.061973635440535 -1.204084573536902 -0.7288248476553916
| 16> C 5.309255256753994 -2.2299358874656225 -1.8239414995383922
| 17> C 3.8045902280125747 0.7224829678854298 -1.7021500384049646
| 18> C 4.148088247471205 1.9349382316937125 -0.8506803956067149
| 19> C -1.9857572284795977 -0.8655942210583442 0.9409183326115445
| 20> O -1.609086966158142 -1.9344203435791598 1.7155469453701708
| 21> C -2.5871121801205854 -2.5134148251215116 2.565721637000494
| 22> C -3.275381784578414 -0.3200306985068547 0.9194987693456231
| 23> H -6.875096715636589 1.220740297907107 2.114793386776755
| 24> H -6.312646365207893 2.7429152370637455 3.0160940753497583
| 25> H -4.5590075297072605 3.110331157341231 1.389734372123164
| 26> H -5.703938431448367 0.5428837037361359 0.05170732752875844
| 27> H -5.128509452888909 1.9446999459320267 -0.8231525411191661
| 28> H -2.784265410473002 2.181894119306486 -1.3387367691219472
| 29> H -0.54035781594478 1.2503740673572228 -1.3278625720300865
| 30> H 1.0757474931807858 -0.3819937172389714 -1.6145397365711067
| 31> H 1.4644690637212199 0.7091157428554099 -0.2229590474147304
| 32> H 5.870740546322853 -0.4655727122550466 -0.7107689661305953
| 33> H 5.067449793286652 -1.707223759895018 0.24460869586522097
| 34> H 4.520369411196291 -2.9889454711557373 -1.8398769113368638
| 35> H 5.3349270731675045 -1.7556080081821848 -2.810256555423684
| 36> H 6.266580320220022 -2.7348298830965203 -1.662481897695609
| 37> H 2.833295089738674 0.8788515896116925 -2.1785849882799653
| 38> H 4.535982824053729 0.6087983145292583 -2.5101002098151
| 39> H 3.430433313074895 2.0645472874085447 -0.03467386972054162
| 40> H 4.139300182004029 2.8424888217409463 -1.4621014667755623
| 41> H 5.1425635931521505 1.8360410896927852 -0.4040084778290207
| 42> H -3.4166685445168996 -2.931671742205031 1.9862505191628845
| 43> H -2.1134435839435395 -3.337199974845596 3.108406276246841
| 44> H -2.9453109693287205 -1.7908817319396302 3.306414538385476
| 45> H -4.066881992696055 -0.7281382462674144 1.5401406923440466
| 46> *
| 47>
| 48>                          ****END OF INPUT****

CARTESIAN COORDINATES (ANGSTROEM)
---------------------------------
  C     -6.189027    2.059281    2.181500
  C     -5.219839    2.252985    1.277172
  C     -4.973762    1.361298    0.093087
  C     -3.581229    0.775429    0.096512
  C     -2.572819    1.327242   -0.699620
  C     -1.283028    0.789144   -0.686739
  C     -0.979323   -0.306367    0.128655
  O      0.256353   -0.901702    0.203440
  C      1.315815   -0.326325   -0.546529
  C      2.640525   -1.080131   -0.344808
  O      2.697462   -2.142019    0.278599
  N      3.786571   -0.510391   -0.913600
  C      5.061974   -1.204085   -0.728825
  C      5.309255   -2.229936   -1.823941
  C      3.804590    0.722483   -1.702150
  C      4.148088    1.934938   -0.850680
  C     -1.985757   -0.865594    0.940918
  O     -1.609087   -1.934420    1.715547
  C     -2.587112   -2.513415    2.565722
  C     -3.275382   -0.320031    0.919499
  H     -6.875097    1.220740    2.114793
  H     -6.312646    2.742915    3.016094
  H     -4.559008    3.110331    1.389734
  H     -5.703938    0.542884    0.051707
  H     -5.128509    1.944700   -0.823153
  H     -2.784265    2.181894   -1.338737
  H     -0.540358    1.250374   -1.327863
  H      1.075747   -0.381994   -1.614540
  H      1.464469    0.709116   -0.222959
  H      5.870741   -0.465573   -0.710769
  H      5.067450   -1.707224    0.244609
  H      4.520369   -2.988945   -1.839877
  H      5.334927   -1.755608   -2.810257
  H      6.266580   -2.734830   -1.662482
  H      2.833295    0.878852   -2.178585
  H      4.535983    0.608798   -2.510100
  H      3.430433    2.064547   -0.034674
  H      4.139300    2.842489   -1.462101
  H      5.142564    1.836041   -0.404008
  H     -3.416669   -2.931672    1.986251
  H     -2.113444   -3.337200    3.108406
  H     -2.945311   -1.790882    3.306415
  H     -4.066882   -0.728138    1.540141

 Total Charge           Charge          ....    0
 Multiplicity           Mult            ....    1
 Number of Electrons    NEL             ....  150
 Basis Dimension        Dim             ....  395

ORBITAL ENERGIES
----------------

  NO   OCC          E(Eh)            E(eV)
   0   2.0000     -20.573478      -559.8328
   1   2.0000     -20.566961      -559.6555
   2   2.0000     -20.508157      -558.0553
   3   2.0000     -15.581736      -424.0006
   4   2.0000     -11.355790      -309.0068
   5   2.0000     -11.309980      -307.7602
   6   2.0000     -11.301849      -307.5390
   7   2.0000     -11.300689      -307.5074
   8   2.0000     -11.284624      -307.0702
   9   2.0000     -11.284321      -307.0620
  10   2.0000     -11.262241      -306.4612
  11   2.0000     -11.242263      -305.9175
  12   2.0000     -11.242065      -305.9121
  13   2.0000     -11.240911      -305.8807
  14   2.0000     -11.239045      -305.8300
  15   2.0000     -11.237291      -305.7822
  16   2.0000     -11.236642      -305.7646
  17   2.0000     -11.234549      -305.7076
  18   2.0000     -11.229832      -305.5793
  19   2.0000     -11.218374      -305.2675
  20   2.0000      -1.397498       -38.0279
  21   2.0000      -1.372688       -37.3528
  22   2.0000      -1.346548       -36.6414
  23   2.0000      -1.227355       -33.3980
  24   2.0000      -1.142959       -31.1015
  25   2.0000      -1.072421       -29.1821
  26   2.0000      -1.037418       -28.2296
  27   2.0000      -1.024430       -27.8762
  28   2.0000      -1.006892       -27.3989
  29   2.0000      -0.999732       -27.2041
  30   2.0000      -0.963105       -26.2074
  31   2.0000      -0.935854       -25.4659
  32   2.0000      -0.903672       -24.5902
  33   2.0000      -0.868293       -23.6275
  34   2.0000      -0.851138       -23.1607
  35   2.0000      -0.815732       -22.1972
  36   2.0000      -0.796309       -21.6687
  37   2.0000      -0.755418       -20.5560
  38   2.0000      -0.731942       -19.9171
  39   2.0000      -0.724284       -19.7088
  40   2.0000      -0.701454       -19.0875
  41   2.0000      -0.684760       -18.6333
  42   2.0000      -0.677681       -18.4406
  43   2.0000      -0.673392       -18.3239
  44   2.0000      -0.659761       -17.9530
  45   2.0000      -0.646255       -17.5855
  46   2.0000      -0.640333       -17.4244
  47   2.0000      -0.620788       -16.8925
  48   2.0000      -0.615312       -16.7435
  49   2.0000      -0.609518       -16.5858
  50   2.0000      -0.603077       -16.4106
  51   2.0000      -0.597819       -16.2675
  52   2.0000      -0.595664       -16.2088
  53   2.0000      -0.586124       -15.9493
  54   2.0000      -0.577769       -15.7219
  55   2.0000      -0.553971       -15.0743
  56   2.0000      -0.548015       -14.9123
  57   2.0000      -0.546306       -14.8658
  58   2.0000      -0.540256       -14.7011
  59   2.0000      -0.531597       -14.4655
  60   2.0000      -0.521695       -14.1960
  61   2.0000      -0.510640       -13.8952
  62   2.0000      -0.508592       -13.8395
  63   2.0000      -0.504124       -13.7179
  64   2.0000      -0.502552       -13.6751
  65   2.0000      -0.489997       -13.3335
  66   2.0000      -0.487215       -13.2578
  67   2.0000      -0.480525       -13.0757
  68   2.0000      -0.477368       -12.9898
  69   2.0000      -0.452660       -12.3175
  70   2.0000      -0.414611       -11.2821
  71   2.0000      -0.366899        -9.9838
  72   2.0000      -0.365993        -9.9592
  73   2.0000      -0.332381        -9.0445
  74   2.0000      -0.295821        -8.0497
  75   0.0000       0.132287         3.5997
  76   0.0000       0.135981         3.7002
  77   0.0000       0.153327         4.1722
  78   0.0000       0.175793         4.7836
  79   0.0000       0.179624         4.8878

MULLIKEN ATOMIC CHARGES
-----------------------
   0 C :   -0.082357
   1 C :   -0.112090
   2 C :    0.111237
   3 C :   -0.161134
   4 C :   -0.017387
   5 C :   -0.124279
   6 C :    0.288442
   7 O :   -0.525507
   8 C :    0.241886
   9 C :    0.471052
  10 O :   -0.435323
  11 N :   -0.681026
  12 C :    0.144787
  13 C :   -0.035206
  14 C :    0.123524
  15 C :   -0.017892
  16 C :    0.312654
  17 O :   -0.539452
  18 C :    0.228965
  19 C :   -0.103593
  20 H :    0.044450
  21 H :    0.054522
  22 H :    0.046368
  23 H :    0.039821
  24 H :    0.043805
  25 H :    0.024811
  26 H :    0.030458
  27 H :    0.058909
  28 H :    0.050331
  29 H :    0.026273
  30 H :    0.067592
  31 H :    0.055535
  32 H :    0.014886
  33 H :    0.030464
  34 H :    0.035475
  35 H :    0.044612
  36 H :    0.032017
  37 H :    0.033958
  38 H :    0.037889
  39 H :    0.027736
  40 H :    0.055227
  41 H :    0.030262
  42 H :    0.027298
Sum of atomic charges:    0.0000000

LOEWDIN ATOMIC CHARGES
----------------------
   0 C :   -0.065147
   1 C :   -0.013512
   2 C :   -0.002908
   3 C :   -0.033241
   4 C :   -0.045965
   5 C :   -0.067511
   6 C :    0.074340
   7 O :   -0.170642
   8 C :    0.110696
   9 C :    0.191230
  10 O :   -0.298033
  11 N :   -0.152697
  12 C :    0.076428
  13 C :   -0.040831
  14 C :    0.070398
  15 C :   -0.041569
  16 C :    0.089435
  17 O :   -0.187012
  18 C :    0.133563
  19 C :   -0.064501
  20 H :    0.016698
  21 H :    0.021478
  22 H :    0.023228
  23 H :    0.025405
  24 H :    0.026984
  25 H :    0.022723
  26 H :    0.024993
  27 H :    0.020976
  28 H :    0.016262
  29 H :    0.008421
  30 H :    0.028153
  31 H :    0.026386
  32 H :    0.008821
  33 H :    0.018065
  34 H :    0.012719
  35 H :    0.018105
  36 H :    0.016130
  37 H :    0.019161
  38 H :    0.019754
  39 H :    0.005590
  40 H :    0.023268
  41 H :    0.006593
  42 H :    0.027569

  Mayer bond orders larger than 0.100000
B(  0-C ,  1-C ) :   2.0007 B(  0-C , 20-H ) :   0.9804 B(  0-C , 21-H ) :   0.9765
B(  1-C ,  2-C ) :   0.9981 B(  1-C , 22-H ) :   0.9749 B(  2-C ,  3-C ) :   1.0004
B(  2-C , 23-H ) :   0.9782 B(  2-C , 24-H ) :   0.9695 B(  3-C ,  4-C ) :   1.4688
B(  3-C , 19-C ) :   1.3457 B(  4-C ,  5-C ) :   1.3618 B(  4-C , 25-H ) :   1.0021
B(  5-C ,  6-C ) :   1.4046 B(  5-C , 26-H ) :   1.0103 B(  6-C ,  7-O ) :   1.0017
B(  6-C , 16-C ) :   1.3688 B(  7-O ,  8-C ) :   0.9064 B(  8-C ,  9-C ) :   0.9649
B(  8-C , 27-H ) :   0.9599 B(  8-C , 28-H ) :   0.9643 B(  9-C , 10-O ) :   1.9528
B(  9-C , 11-N ) :   1.0772 B( 11-N , 12-C ) :   0.8657 B( 11-N , 14-C ) :   0.8881
B( 12-C , 13-C ) :   1.0518 B( 12-C , 29-H ) :   0.9811 B( 12-C , 30-H ) :   0.9707
B( 13-C , 31-H ) :   0.9827 B( 13-C , 32-H ) :   0.9810 B( 13-C , 33-H ) :   0.9863
B( 14-C , 15-C ) :   1.0468 B( 14-C , 34-H ) :   0.9761 B( 14-C , 35-H ) :   0.9753
B( 15-C , 36-H ) :   0.9793 B( 15-C , 37-H ) :   0.9836 B( 15-C , 38-H ) :   0.9803
B( 16-C , 17-O ) :   1.0217 B( 16-C , 19-C ) :   1.4176 B( 17-O , 18-C ) :   0.8740
B( 18-C , 39-H ) :   0.9839 B( 18-C , 40-H ) :   0.9921 B( 18-C , 41-H ) :   0.9840
B( 19-C , 42-H ) :   1.0098

FINAL SINGLE POINT ENERGY      -897.598426435947

DIPOLE MOMENT
-------------
                                X             Y             Z
Electronic contribution:     -8.49774      -5.63177       3.48516
Nuclear contribution   :      8.43740       7.14000      -4.35961
                        -----------------------------------------
Total Dipole Moment    :     -0.06034       1.50824      -0.87446
                        -----------------------------------------
Magnitude (a.u.)       :      1.74445
Magnitude (Debye)      :      4.43403

Rotational constants in cm-1:     0.023170     0.004238     0.003755
Rotational constants in MHz :   694.614177   127.051293   112.579248

                             ****ORCA TERMINATED NORMALLY****
TOTAL RUN TIME: 0 days 0 hours 0 minutes 19 seconds 294 msec
