                         Program Version 5.0.3 -  RELEASE  -
|  1> !RHF def2-SVP TightSCF PAL16
|  2> *xyz 0 1
|  3> C -7.00932243319348 1.7741777106748284 0.9326978960046962
|  4> O -5.984999236136981 1.7594162483717195 -0.053158930056191316
|  5> C -4.78884218923108 1.2042366947780239 0.30861255523498293
|  6> C -4.481997742741257 0.6488992354289866 1.5433703862118127
|  7> C -3.2064309404479676 0.1257707900452749 1.7723875263286724
|  8> C -2.207702723475723 0.1475037591725737 0.7788385931349145
|  9> C -2.5251897469598488 0.6717589467401921 -0.48506242537287175
| 10> C -3.812019722825116 1.2134459000145579 -0.6897125260206131
| 11> C -1.552683989863537 0.7329047853625404 -1.6462311643498722
| 12> C -0.6324766421098429 -0.5038264900996383 -1.8084489164240138
| 13> C -0.18559096632509525 -0.5742195255147539 -3.2808285175045886
| 14> N 0.5743801212828169 -0.47064545437062943 -0.9540386361259551
| 15> C 1.257745247053516 -1.7801339590957057 -0.8714667150355017
| 16> C 2.7316686319796326 -1.6885989028729227 -1.306741033375313
| 17> C 3.633589264797653 -1.0043367852901368 -0.308807815053594
| 18> C 3.9390247313410294 0.354562520159585 -0.44201535492667365
| 19> C 4.765285907563288 0.9906695146856742 0.48909069520080956
| 20> C 5.26433224146076 0.2962941500239849 1.592628149238317
| 21> N 6.183348094505707 0.9064668286053519 2.4548161626968317
| 22> C 5.004934120539725 -1.0719300044302742 1.6937055722387473
| 23> C 4.17900218700486 -1.714930320559101 0.7662590394141964
| 24> C 0.3503151334105766 0.10770179563002909 0.3814522832271284
| 25> C -0.8625997960219391 -0.4402192256623554 1.145182393930226
| 26> H -6.7119192993275085 2.36817204195914 1.803221966870754
| 27> H -7.890807055809703 2.249022798133856 0.49141288418263734
| 28> H -7.291028999809433 0.7570257570331207 1.2248498185023382
| 29> H -5.203686502474486 0.6085514198861932 2.3515188459253094
| 30> H -2.989303767821363 -0.30015427644192894 2.7509048571656063
| 31> H -4.068676974221946 1.650463266920586 -1.6536647426006892
| 32> H -0.9657214848628429 1.657852188574968 -1.5769896602743798
| 33> H -2.1457381677653085 0.8319258717002161 -2.565938955867341
| 34> H -1.225097063658245 -1.4031866303847373 -1.5899695670204492
| 35> H 0.40202493538025486 0.30825224292159836 -3.558797691345237
| 36> H 0.420107075862799 -1.4617949471617946 -3.488750116003585
| 37> H -1.0542758236337515 -0.6230658999818658 -3.94691868867107
| 38> H 1.186699921785884 -2.2154964351119375 0.13377663852937124
| 39> H 0.7726957002503965 -2.513975312569731 -1.527500064724342
| 40> H 3.1123177311576993 -2.70542271446828 -1.4719208709844884
| 41> H 2.8094239921369715 -1.1919446847025335 -2.282770104348018
| 42> H 3.5346381821297883 0.9259783911007292 -1.2748326550154037
| 43> H 5.010834317303961 2.0388624968309568 0.3441698065926601
| 44> H 6.076218423509377 1.913802382528826 2.5164570479600212
| 45> H 6.2404270479776285 0.4669316020237232 3.3675443803411027
| 46> H 5.444686592685431 -1.653179253069324 2.499365624725084
| 47> H 3.9783332093007067 -2.776992555392789 0.8824146690029505
| 48> H 0.2830192320866903 1.1999637722268288 0.298538459651497
| 49> H 1.2429845513596953 -0.05721698750215213 0.997821621865604
| 50> H -0.920732354497023 -1.5318821023486116 1.0558652354458125
| 51> H -0.6811929706540677 -0.22746064450219897 2.2076620414785104
| 52> *
| 53>
| 54>                          ****END OF INPUT****

CARTESIAN COORDINATES (ANGSTROEM)
---------------------------------
  C     -7.009322    1.774178    0.932698
  O     -5.984999    1.759416   -0.053159
  C     -4.788842    1.204237    0.308613
  C     -4.481998    0.648899    1.543370
  C     -3.206431    0.125771    1.772388
  C     -2.207703    0.147504    0.778839
  C     -2.525190    0.671759   -0.485062
  C     -3.812020    1.213446   -0.689713
  C     -1.552684    0.732905   -1.646231
  C     -0.632477   -0.503826   -1.808449
  C     -0.185591   -0.574220   -3.280829
  N      0.574380   -0.470645   -0.954039
  C      1.257745   -1.780134   -0.871467
  C      2.731669   -1.688599   -1.306741
  C      3.633589   -1.004337   -0.308808
  C      3.939025    0.354563   -0.442015
  C      4.765286    0.990670    0.489091
  C      5.264332    0.296294    1.592628
  N      6.183348    0.906467    2.454816
  C      5.004934   -1.071930    1.693706
  C      4.179002   -1.714930    0.766259
  C      0.350315    0.107702    0.381452
  C     -0.862600   -0.440219    1.145182
  H     -6.711919    2.368172    1.803222
  H     -7.890807    2.249023    0.491413
  H     -7.291029    0.757026    1.224850
  H     -5.203687    0.608551    2.351519
  H     -2.989304   -0.300154    2.750905
  H     -4.068677    1.650463   -1.653665
  H     -0.965721    1.657852   -1.576990
  H     -2.145738    0.831926   -2.565939
  H     -1.225097   -1.403187   -1.589970
  H      0.402025    0.308252   -3.558798
  H      0.420107   -1.461795   -3.488750
  H     -1.054276   -0.623066   -3.946919
  H      1.186700   -2.215496    0.133777
  H      0.772696   -2.513975   -1.527500
  H      3.112318   -2.705423   -1.471921
  H      2.809424   -1.191945   -2.282770
  H      3.534638    0.925978   -1.274833
  H      5.010834    2.038862    0.344170
  H      6.076218    1.913802    2.516457
  H      6.240427    0.466932    3.367544
  H      5.444687   -1.653179    2.499366
  H      3.978333   -2.776993    0.882415
  H      0.283019    1.199964    0.298538
  H      1.242985   -0.057217    0.997822
  H     -0.920732   -1.531882    1.055865
  H     -0.681193   -0.227461    2.207662

 Total Charge           Charge          ....    0
 Multiplicity           Mult            ....    1
 Number of Electrons    NEL             ....  168
 Basis Dimension        Dim             ....  452

ORBITAL ENERGIES
----------------

  NO   OCC          E(Eh)            E(eV)
   0   2.0000     -20.571105      -559.7682
   1   2.0000     -15.558422      -423.3662
   2   2.0000     -15.534678      -422.7201
   3   2.0000     -11.292567      -307.2864
   4   2.0000     -11.289141      -307.1931
   5   2.0000     -11.269389      -306.6557
   6   2.0000     -11.255776      -306.2852
   7   2.0000     -11.248300      -306.0818
   8   2.0000     -11.243726      -305.9574
   9   2.0000     -11.239690      -305.8475
  10   2.0000     -11.235832      -305.7425
  11   2.0000     -11.232020      -305.6388
  12   2.0000     -11.229160      -305.5610
  13   2.0000     -11.229056      -305.5581
  14   2.0000     -11.227928      -305.5274
  15   2.0000     -11.227589      -305.5182
  16   2.0000     -11.223216      -305.3992
  17   2.0000     -11.223054      -305.3948
  18   2.0000     -11.221706      -305.3581
  19   2.0000     -11.221362      -305.3488
  20   2.0000     -11.220095      -305.3143
  21   2.0000     -11.218309      -305.2657
  22   2.0000     -11.214506      -305.1622
  23   2.0000      -1.384877       -37.6844
  24   2.0000      -1.208595       -32.8875
  25   2.0000      -1.203607       -32.7518
  26   2.0000      -1.137630       -30.9565
  27   2.0000      -1.116816       -30.3901
  28   2.0000      -1.052754       -28.6469
  29   2.0000      -1.043237       -28.3879
  30   2.0000      -1.018634       -27.7184
  31   2.0000      -1.000474       -27.2243
  32   2.0000      -0.994842       -27.0710
  33   2.0000      -0.964022       -26.2324
  34   2.0000      -0.941779       -25.6271
  35   2.0000      -0.910720       -24.7819
  36   2.0000      -0.909078       -24.7373
  37   2.0000      -0.845196       -22.9990
  38   2.0000      -0.833326       -22.6759
  39   2.0000      -0.824088       -22.4246
  40   2.0000      -0.814457       -22.1625
  41   2.0000      -0.776206       -21.1216
  42   2.0000      -0.758176       -20.6310
  43   2.0000      -0.747861       -20.3503
  44   2.0000      -0.700676       -19.0664
  45   2.0000      -0.691002       -18.8031
  46   2.0000      -0.684143       -18.6165
  47   2.0000      -0.672264       -18.2932
  48   2.0000      -0.663526       -18.0555
  49   2.0000      -0.651775       -17.7357
  50   2.0000      -0.638154       -17.3650
  51   2.0000      -0.630244       -17.1498
  52   2.0000      -0.626297       -17.0424
  53   2.0000      -0.616843       -16.7851
  54   2.0000      -0.598718       -16.2919
  55   2.0000      -0.597467       -16.2579
  56   2.0000      -0.586910       -15.9706
  57   2.0000      -0.581469       -15.8226
  58   2.0000      -0.575687       -15.6652
  59   2.0000      -0.566109       -15.4046
  60   2.0000      -0.560991       -15.2653
  61   2.0000      -0.554364       -15.0850
  62   2.0000      -0.551670       -15.0117
  63   2.0000      -0.538899       -14.6642
  64   2.0000      -0.530207       -14.4277
  65   2.0000      -0.526264       -14.3204
  66   2.0000      -0.523706       -14.2508
  67   2.0000      -0.517003       -14.0684
  68   2.0000      -0.509185       -13.8556
  69   2.0000      -0.503441       -13.6993
  70   2.0000      -0.494194       -13.4477
  71   2.0000      -0.491365       -13.3707
  72   2.0000      -0.480578       -13.0772
  73   2.0000      -0.471066       -12.8183
  74   2.0000      -0.464048       -12.6274
  75   2.0000      -0.461887       -12.5686
  76   2.0000      -0.458100       -12.4655
  77   2.0000      -0.441351       -12.0098
  78   2.0000      -0.430925       -11.7261
  79   2.0000      -0.342856        -9.3296
  80   2.0000      -0.331512        -9.0209
  81   2.0000      -0.325420        -8.8551
  82   2.0000      -0.298805        -8.1309
  83   2.0000      -0.283446        -7.7130
  84   0.0000       0.129966         3.5365
  85   0.0000       0.133863         3.6426
  86   0.0000       0.151986         4.1357
  87   0.0000       0.155880         4.2417
  88   0.0000       0.180941         4.9237

MULLIKEN ATOMIC CHARGES
-----------------------
   0 C :    0.228512
   1 O :   -0.551156
   2 C :    0.339788
   3 C :   -0.153235
   4 C :   -0.004058
   5 C :   -0.177880
   6 C :   -0.118120
   7 C :   -0.081070
   8 C :    0.107882
   9 C :    0.025929
  10 C :    0.038326
  11 N :   -0.651801
  12 C :    0.177427
  13 C :    0.124985
  14 C :   -0.230833
  15 C :    0.015404
  16 C :   -0.087113
  17 C :    0.124306
  18 N :   -0.267405
  19 C :   -0.084861
  20 C :    0.004319
  21 C :    0.176185
  22 C :    0.064734
  23 H :    0.031354
  24 H :    0.047903
  25 H :    0.031167
  26 H :    0.027387
  27 H :    0.026372
  28 H :    0.029709
  29 H :    0.055969
  30 H :    0.034847
  31 H :    0.020698
  32 H :    0.028421
  33 H :    0.026562
  34 H :    0.022243
  35 H :    0.014905
  36 H :    0.023447
  37 H :    0.017811
  38 H :    0.025917
  39 H :    0.034479
  40 H :    0.017217
  41 H :    0.132517
  42 H :    0.131970
  43 H :    0.016571
  44 H :    0.025340
  45 H :    0.027443
  46 H :    0.055243
  47 H :    0.042020
  48 H :    0.032224
Sum of atomic charges:   -0.0000000

LOEWDIN ATOMIC CHARGES
----------------------
   0 C :    0.132191
   1 O :   -0.199863
   2 C :    0.091491
   3 C :   -0.089676
   4 C :   -0.004759
   5 C :   -0.060388
   6 C :   -0.013712
   7 C :   -0.053581
   8 C :   -0.006353
   9 C :    0.052159
  10 C :   -0.031510
  11 N :   -0.199273
  12 C :    0.073738
  13 C :   -0.008503
  14 C :   -0.066639
  15 C :    0.001200
  16 C :   -0.071805
  17 C :    0.044247
  18 N :   -0.086046
  19 C :   -0.071961
  20 C :   -0.008696
  21 C :    0.059517
  22 C :   -0.024827
  23 H :    0.007185
  24 H :    0.019716
  25 H :    0.007087
  26 H :    0.023528
  27 H :    0.024471
  28 H :    0.028094
  29 H :    0.029291
  30 H :    0.026305
  31 H :   -0.003139
  32 H :    0.017190
  33 H :    0.012109
  34 H :    0.012452
  35 H :    0.002390
  36 H :    0.005842
  37 H :    0.014606
  38 H :    0.019324
  39 H :    0.027427
  40 H :    0.020015
  41 H :    0.067547
  42 H :    0.067107
  43 H :    0.019636
  44 H :    0.022692
  45 H :    0.010330
  46 H :    0.019370
  47 H :    0.019741
  48 H :    0.022733

  Mayer bond orders larger than 0.100000
B(  0-C ,  1-O ) :   0.8740 B(  0-C , 23-H ) :   0.9846 B(  0-C , 24-H ) :   0.9933
B(  0-C , 25-H ) :   0.9846 B(  1-O ,  2-C ) :   0.9943 B(  2-C ,  3-C ) :   1.3497
B(  2-C ,  7-C ) :   1.4071 B(  3-C ,  4-C ) :   1.4123 B(  3-C , 26-H ) :   1.0066
B(  4-C ,  5-C ) :   1.4630 B(  4-C , 27-H ) :   0.9990 B(  5-C ,  6-C ) :   1.4227
B(  5-C , 22-C ) :   0.9680 B(  6-C ,  7-C ) :   1.4487 B(  6-C ,  8-C ) :   0.9886
B(  7-C , 28-H ) :   1.0071 B(  8-C ,  9-C ) :   1.0242 B(  8-C , 29-H ) :   0.9429
B(  8-C , 30-H ) :   0.9734 B(  9-C , 10-C ) :   1.0462 B(  9-C , 11-N ) :   0.9087
B(  9-C , 31-H ) :   0.9629 B( 10-C , 32-H ) :   0.9760 B( 10-C , 33-H ) :   0.9846
B( 10-C , 34-H ) :   0.9833 B( 11-N , 12-C ) :   0.9050 B( 11-N , 21-C ) :   0.9404
B( 12-C , 13-C ) :   1.0341 B( 12-C , 35-H ) :   0.9677 B( 12-C , 36-H ) :   0.9754
B( 13-C , 14-C ) :   0.9999 B( 13-C , 37-H ) :   0.9736 B( 13-C , 38-H ) :   0.9689
B( 14-C , 15-C ) :   1.4256 B( 14-C , 20-C ) :   1.4107 B( 15-C , 16-C ) :   1.4361
B( 15-C , 39-H ) :   1.0000 B( 16-C , 17-C ) :   1.3657 B( 16-C , 40-H ) :   1.0042
B( 17-C , 18-N ) :   1.1010 B( 17-C , 19-C ) :   1.3661 B( 18-N , 41-H ) :   0.9620
B( 18-N , 42-H ) :   0.9620 B( 19-C , 20-C ) :   1.4432 B( 19-C , 43-H ) :   1.0034
B( 20-C , 44-H ) :   1.0000 B( 21-C , 22-C ) :   1.0409 B( 21-C , 45-H ) :   0.9748
B( 21-C , 46-H ) :   0.9797 B( 22-C , 47-H ) :   0.9565 B( 22-C , 48-H ) :   0.9707

FINAL SINGLE POINT ENERGY      -955.533909234447

DIPOLE MOMENT
-------------
                                X             Y             Z
Electronic contribution:     -0.04146       3.57271       4.88349
Nuclear contribution   :     -0.37795      -3.63098      -3.84135
                        -----------------------------------------
Total Dipole Moment    :     -0.41941      -0.05827       1.04215
                        -----------------------------------------
Magnitude (a.u.)       :      1.12489
Magnitude (Debye)      :      2.85924

Rotational constants in cm-1:     0.018838     0.003366     0.003087
Rotational constants in MHz :   564.749092   100.903261    92.548904

                             ****ORCA TERMINATED NORMALLY****
TOTAL RUN TIME: 0 days 0 hours 0 minutes 32 seconds 804 msec
