                         Program Version 5.0.3 -  RELEASE  -
|  1> !RHF def2-SVP TightSCF PAL16
|  2> *xyz 0 1
|  3> C 6.087398155615585 1.9354174925527308 -2.106366386606893
|  4> C 4.86442817904286 1.7776244994618455 -1.2183186985492322
|  5> C 4.226887510574935 0.4027635516846606 -1.384319333387414
|  6> C 3.0133470901519877 0.2629262345314469 -0.48673150667343507
|  7> O 2.012501261859657 0.961831556703076 -0.6356861678259061
|  8> C 3.0504620485122285 -0.7500891439248493 0.5993322789487742
|  9> C 4.189769236044074 -0.8700230437807345 1.4015748864448316
| 10> C 4.203375547136908 -1.808760501614452 2.4270392876398375
| 11> F 5.2946709333410515 -1.9255510680423713 3.194083519609393
| 12> C 3.1082775529078512 -2.6313095615297644 2.668509905463806
| 13> C 1.96785593788822 -2.5112395686976554 1.874465173286142
| 14> C 1.9299117128869006 -1.5571510512508038 0.8514261288361405
| 15> O 0.845568375593357 -1.4648826287102081 0.02201231881998365
| 16> C -0.388720057320747 -1.2208835221163663 0.7187354080535259
| 17> C -1.2079139036402753 -0.21108135623079727 -0.09918336605879166
| 18> O -0.630016090337735 1.0916392228112093 0.04725634546046982
| 19> C -2.6754223713306184 -0.1918507096930101 0.3883267923929836
| 20> N -3.508410260475816 0.7383139717780463 -0.38066533682647
| 21> C -4.9635434431347 0.5779425374980188 -0.2733947616842902
| 22> C -5.438547362038645 -0.6684979469637935 -1.0387768794048202
| 23> C -5.584895750890062 1.82249548410188 -0.9344419935607909
| 24> C -5.439734148712978 0.5122072515719649 1.186735455089106
| 25> H 6.526701313744031 2.929049134390809 -1.9737078336654885
| 26> H 6.850700302450524 1.190891486211741 -1.858559446084931
| 27> H 5.823013023123145 1.818923522075408 -3.1622312195076328
| 28> H 4.1367507317949554 2.560667094970155 -1.4628200463189938
| 29> H 5.152558551692667 1.9338902439800185 -0.1721054826001362
| 30> H 4.9545220688547245 -0.39002474453739666 -1.1812846898567235
| 31> H 3.8884762020175128 0.2541130980432086 -2.416787759094514
| 32> H 5.061290223784772 -0.239870572801841 1.2591602960630142
| 33> H 3.152535115061308 -3.3633905620064937 3.469344769128457
| 34> H 1.123230050196274 -3.1722387790131936 2.0478782863950147
| 35> H -0.2138655947801378 -0.817524521888409 1.7251756068957136
| 36> H -0.9166590648820568 -2.177687952982904 0.7955153142173066
| 37> H -1.168161702028993 -0.46720230151683617 -1.1648245560863044
| 38> H 0.29955331193610985 1.03741495045286 -0.27321887546136087
| 39> H -3.067085031657616 -1.2116939368958428 0.31692599620889805
| 40> H -2.6946563914367347 0.11376734715204122 1.4408188455312374
| 41> H -3.2061718706220663 0.776550405863852 -1.3526947889748078
| 42> H -5.074797403017997 -1.5950216969693658 -0.5825919082587452
| 43> H -5.097331090201748 -0.6516728885983688 -2.0804899660368514
| 44> H -6.533382569094043 -0.7239935487286191 -1.0536586946607438
| 45> H -5.273754160948672 2.7427523628965873 -0.4255724018768023
| 46> H -6.679944506313878 1.7823383322658646 -0.9014562920716366
| 47> H -5.291789076737081 1.908015930791998 -1.987767326778601
| 48> H -6.534665251259921 0.5074120026473459 1.2415345415987686
| 49> H -5.08607427495685 1.377049065850734 1.7600078276801607
| 50> H -5.088243060393555 -0.39435517179347707 1.6915370907652987
| 51> *
| 52>
| 53>                          ****END OF INPUT****

CARTESIAN COORDINATES (ANGSTROEM)
---------------------------------
  C      6.087398    1.935417   -2.106366
  C      4.864428    1.777624   -1.218319
  C      4.226888    0.402764   -1.384319
  C      3.013347    0.262926   -0.486732
  O      2.012501    0.961832   -0.635686
  C      3.050462   -0.750089    0.599332
  C      4.189769   -0.870023    1.401575
  C      4.203376   -1.808761    2.427039
  F      5.294671   -1.925551    3.194084
  C      3.108278   -2.631310    2.668510
  C      1.967856   -2.511240    1.874465
  C      1.929912   -1.557151    0.851426
  O      0.845568   -1.464883    0.022012
  C     -0.388720   -1.220884    0.718735
  C     -1.207914   -0.211081   -0.099183
  O     -0.630016    1.091639    0.047256
  C     -2.675422   -0.191851    0.388327
  N     -3.508410    0.738314   -0.380665
  C     -4.963543    0.577943   -0.273395
  C     -5.438547   -0.668498   -1.038777
  C     -5.584896    1.822495   -0.934442
  C     -5.439734    0.512207    1.186735
  H      6.526701    2.929049   -1.973708
  H      6.850700    1.190891   -1.858559
  H      5.823013    1.818924   -3.162231
  H      4.136751    2.560667   -1.462820
  H      5.152559    1.933890   -0.172105
  H      4.954522   -0.390025   -1.181285
  H      3.888476    0.254113   -2.416788
  H      5.061290   -0.239871    1.259160
  H      3.152535   -3.363391    3.469345
  H      1.123230   -3.172239    2.047878
  H     -0.213866   -0.817525    1.725176
  H     -0.916659   -2.177688    0.795515
  H     -1.168162   -0.467202   -1.164825
  H      0.299553    1.037415   -0.273219
  H     -3.067085   -1.211694    0.316926
  H     -2.694656    0.113767    1.440819
  H     -3.206172    0.776550   -1.352695
  H     -5.074797   -1.595022   -0.582592
  H     -5.097331   -0.651673   -2.080490
  H     -6.533383   -0.723994   -1.053659
  H     -5.273754    2.742752   -0.425572
  H     -6.679945    1.782338   -0.901456
  H     -5.291789    1.908016   -1.987767
  H     -6.534665    0.507412    1.241535
  H     -5.086074    1.377049    1.760008
  H     -5.088243   -0.394355    1.691537

 Total Charge           Charge          ....    0
 Multiplicity           Mult            ....    1
 Number of Electrons    NEL             ....  168
 Basis Dimension        Dim             ....  438

ORBITAL ENERGIES
----------------

  NO   OCC          E(Eh)            E(eV)
   0   2.0000     -26.311997      -715.9859
   1   2.0000     -20.581664      -560.0556
   2   2.0000     -20.560120      -559.4693
   3   2.0000     -20.505700      -557.9885
   4   2.0000     -15.519493      -422.3069
   5   2.0000     -11.358401      -309.0778
   6   2.0000     -11.345219      -308.7191
   7   2.0000     -11.326868      -308.2198
   8   2.0000     -11.290308      -307.2249
   9   2.0000     -11.277103      -306.8656
  10   2.0000     -11.273402      -306.7649
  11   2.0000     -11.272160      -306.7311
  12   2.0000     -11.270866      -306.6959
  13   2.0000     -11.268403      -306.6288
  14   2.0000     -11.252684      -306.2011
  15   2.0000     -11.252149      -306.1866
  16   2.0000     -11.244360      -305.9746
  17   2.0000     -11.243949      -305.9634
  18   2.0000     -11.233233      -305.6718
  19   2.0000     -11.213564      -305.1366
  20   2.0000     -11.211129      -305.0703
  21   2.0000     -11.206582      -304.9466
  22   2.0000      -1.616251       -43.9804
  23   2.0000      -1.404485       -38.2180
  24   2.0000      -1.381170       -37.5835
  25   2.0000      -1.298637       -35.3377
  26   2.0000      -1.183750       -32.2115
  27   2.0000      -1.174964       -31.9724
  28   2.0000      -1.090079       -29.6626
  29   2.0000      -1.057293       -28.7704
  30   2.0000      -1.046746       -28.4834
  31   2.0000      -1.030174       -28.0325
  32   2.0000      -0.988396       -26.8956
  33   2.0000      -0.968736       -26.3607
  34   2.0000      -0.920213       -25.0403
  35   2.0000      -0.915319       -24.9071
  36   2.0000      -0.899478       -24.4760
  37   2.0000      -0.891848       -24.2684
  38   2.0000      -0.843718       -22.9587
  39   2.0000      -0.827239       -22.5103
  40   2.0000      -0.794095       -21.6084
  41   2.0000      -0.791596       -21.5404
  42   2.0000      -0.741264       -20.1708
  43   2.0000      -0.739133       -20.1128
  44   2.0000      -0.735354       -20.0100
  45   2.0000      -0.726637       -19.7728
  46   2.0000      -0.708702       -19.2848
  47   2.0000      -0.685884       -18.6638
  48   2.0000      -0.673722       -18.3329
  49   2.0000      -0.660652       -17.9772
  50   2.0000      -0.656259       -17.8577
  51   2.0000      -0.648216       -17.6389
  52   2.0000      -0.644158       -17.5284
  53   2.0000      -0.631911       -17.1952
  54   2.0000      -0.628634       -17.1060
  55   2.0000      -0.620794       -16.8927
  56   2.0000      -0.604199       -16.4411
  57   2.0000      -0.601264       -16.3612
  58   2.0000      -0.595874       -16.2146
  59   2.0000      -0.589518       -16.0416
  60   2.0000      -0.572923       -15.5900
  61   2.0000      -0.563237       -15.3265
  62   2.0000      -0.555300       -15.1105
  63   2.0000      -0.554892       -15.0994
  64   2.0000      -0.545818       -14.8524
  65   2.0000      -0.527653       -14.3582
  66   2.0000      -0.525846       -14.3090
  67   2.0000      -0.522684       -14.2229
  68   2.0000      -0.516876       -14.0649
  69   2.0000      -0.514194       -13.9919
  70   2.0000      -0.513381       -13.9698
  71   2.0000      -0.505202       -13.7472
  72   2.0000      -0.497732       -13.5440
  73   2.0000      -0.495610       -13.4862
  74   2.0000      -0.488901       -13.3037
  75   2.0000      -0.478332       -13.0161
  76   2.0000      -0.469245       -12.7688
  77   2.0000      -0.456101       -12.4111
  78   2.0000      -0.451237       -12.2788
  79   2.0000      -0.429885       -11.6978
  80   2.0000      -0.412218       -11.2170
  81   2.0000      -0.374940       -10.2026
  82   2.0000      -0.343748        -9.3539
  83   2.0000      -0.341101        -9.2818
  84   0.0000       0.067113         1.8262
  85   0.0000       0.114955         3.1281
  86   0.0000       0.154243         4.1972
  87   0.0000       0.170396         4.6367
  88   0.0000       0.171759         4.6738

MULLIKEN ATOMIC CHARGES
-----------------------
   0 C :   -0.011674
   1 C :   -0.133304
   2 C :   -0.057767
   3 C :    0.386155
   4 O :   -0.430228
   5 C :   -0.202583
   6 C :   -0.061703
   7 C :    0.379027
   8 F :   -0.332332
   9 C :   -0.067490
  10 C :   -0.071191
  11 C :    0.319699
  12 O :   -0.575147
  13 C :    0.289892
  14 C :    0.165392
  15 O :   -0.498150
  16 C :    0.221360
  17 N :   -0.463194
  18 C :   -0.247969
  19 C :    0.059943
  20 C :    0.067745
  21 C :    0.039712
  22 H :    0.042692
  23 H :    0.027496
  24 H :    0.033775
  25 H :    0.067748
  26 H :    0.034907
  27 H :    0.052766
  28 H :    0.073365
  29 H :    0.061916
  30 H :    0.066778
  31 H :    0.055638
  32 H :    0.047946
  33 H :    0.021070
  34 H :    0.017840
  35 H :    0.248630
  36 H :   -0.005799
  37 H :    0.025317
  38 H :    0.127595
  39 H :    0.020847
  40 H :    0.017453
  41 H :    0.019250
  42 H :    0.039872
  43 H :    0.015367
  44 H :    0.016718
  45 H :    0.027664
  46 H :    0.043556
  47 H :    0.023399
Sum of atomic charges:   -0.0000000

LOEWDIN ATOMIC CHARGES
----------------------
   0 C :   -0.032910
   1 C :   -0.015915
   2 C :   -0.036715
   3 C :    0.205272
   4 O :   -0.225227
   5 C :   -0.087018
   6 C :   -0.020908
   7 C :    0.112026
   8 F :   -0.130914
   9 C :   -0.020836
  10 C :   -0.034346
  11 C :    0.102328
  12 O :   -0.205910
  13 C :    0.129092
  14 C :    0.100607
  15 O :   -0.217326
  16 C :    0.057331
  17 N :   -0.145543
  18 C :    0.005096
  19 C :   -0.036227
  20 C :   -0.022913
  21 C :   -0.024925
  22 H :    0.021286
  23 H :    0.014626
  24 H :    0.018005
  25 H :    0.027525
  26 H :    0.013140
  27 H :    0.021256
  28 H :    0.042321
  29 H :    0.040303
  30 H :    0.042744
  31 H :    0.038387
  32 H :    0.016920
  33 H :    0.004038
  34 H :    0.002594
  35 H :    0.065110
  36 H :   -0.011311
  37 H :    0.011747
  38 H :    0.052179
  39 H :    0.009336
  40 H :    0.010583
  41 H :    0.013311
  42 H :    0.019784
  43 H :    0.010044
  44 H :    0.010774
  45 H :    0.018067
  46 H :    0.021841
  47 H :    0.011272

  Mayer bond orders larger than 0.100000
B(  0-C ,  1-C ) :   1.0467 B(  0-C , 22-H ) :   0.9885 B(  0-C , 23-H ) :   0.9834
B(  0-C , 24-H ) :   0.9848 B(  1-C ,  2-C ) :   1.0033 B(  1-C , 25-H ) :   0.9716
B(  1-C , 26-H ) :   0.9769 B(  2-C ,  3-C ) :   0.9831 B(  2-C , 27-H ) :   0.9802
B(  2-C , 28-H ) :   0.9504 B(  3-C ,  4-O ) :   1.9270 B(  3-C ,  5-C ) :   0.9288
B(  5-C ,  6-C ) :   1.3668 B(  5-C , 11-C ) :   1.4469 B(  6-C ,  7-C ) :   1.4355
B(  6-C , 29-H ) :   0.9975 B(  7-C ,  8-F ) :   0.8999 B(  7-C ,  9-C ) :   1.3992
B(  9-C , 10-C ) :   1.3770 B(  9-C , 30-H ) :   0.9961 B( 10-C , 11-C ) :   1.4002
B( 10-C , 31-H ) :   1.0025 B( 11-C , 12-O ) :   1.0100 B( 12-O , 13-C ) :   0.8271
B( 13-C , 14-C ) :   1.0283 B( 13-C , 32-H ) :   0.9552 B( 13-C , 33-H ) :   0.9717
B( 14-C , 15-O ) :   0.9595 B( 14-C , 16-C ) :   1.0243 B( 14-C , 34-H ) :   0.9594
B( 15-O , 35-H ) :   0.9235 B( 16-C , 17-N ) :   0.9601 B( 16-C , 36-H ) :   0.9617
B( 16-C , 37-H ) :   0.9546 B( 17-N , 18-C ) :   0.9286 B( 17-N , 38-H ) :   0.9532
B( 18-C , 19-C ) :   0.9923 B( 18-C , 20-C ) :   1.0185 B( 18-C , 21-C ) :   1.0063
B( 19-C , 39-H ) :   0.9818 B( 19-C , 40-H ) :   0.9812 B( 19-C , 41-H ) :   0.9794
B( 20-C , 42-H ) :   0.9833 B( 20-C , 43-H ) :   0.9835 B( 20-C , 44-H ) :   0.9811
B( 21-C , 45-H ) :   0.9831 B( 21-C , 46-H ) :   0.9816 B( 21-C , 47-H ) :   0.9807

FINAL SINGLE POINT ENERGY     -1036.562226868407

DIPOLE MOMENT
-------------
                                X             Y             Z
Electronic contribution:     35.11554     -13.98305      15.94471
Nuclear contribution   :    -34.28873      12.65797     -16.04731
                        -----------------------------------------
Total Dipole Moment    :      0.82682      -1.32508      -0.10259
                        -----------------------------------------
Magnitude (a.u.)       :      1.56524
Magnitude (Debye)      :      3.97853

Rotational constants in cm-1:     0.014573     0.003577     0.003010
Rotational constants in MHz :   436.891284   107.243702    90.246703

                             ****ORCA TERMINATED NORMALLY****
TOTAL RUN TIME: 0 days 0 hours 0 minutes 26 seconds 454 msec
