                         Program Version 5.0.3 -  RELEASE  -
|  1> !RHF def2-SVP TightSCF PAL16
|  2> *xyz 0 1
|  3> C -2.7932524536936203 -0.9955410030084352 1.627665905009183
|  4> C -3.0310413913149445 -0.19396432669324495 0.3378668201480145
|  5> C -4.266474823441752 0.7033558958175381 0.5424504830464723
|  6> C -3.3155066062330176 -1.152200862619512 -0.8312751218938146
|  7> N -1.9146426612424228 0.7164601382323151 0.03441569921530509
|  8> C -0.578168327953047 0.10333690525769072 -0.042988428363541165
|  9> C 0.44834717448596506 1.1209048042583403 -0.5991939846268897
| 10> O 0.055097961985251416 1.519408697736148 -1.9210223464453278
| 11> C 1.8529369450379505 0.5546456477518802 -0.6386130434731537
| 12> C 2.2194006144919056 -0.41002004158083877 -1.596953296740849
| 13> C 3.510637652792913 -0.9429439237197577 -1.6186713106511772
| 14> C 4.435821359618082 -0.5148894208544413 -0.6792677468509496
| 15> O 5.674743052861457 -1.0866407621553689 -0.6634430739373123
| 16> C 4.096012048625615 0.4596814303568344 0.2533460979815473
| 17> O 5.02950807928099 0.9390667209947255 1.1261879354607225
| 18> C 2.8102717484975988 0.9838750438702446 0.29395838706320637
| 19> H -1.975767470690536 -1.7162556629548895 1.5165306782315315
| 20> H -3.688084727721892 -1.5648616102485853 1.9053335481194353
| 21> H -2.5505615878175147 -0.3350235727478446 2.468165333004213
| 22> H -4.492794986186853 1.287982515851938 -0.357399743540379
| 23> H -5.155025473244884 0.1055126457793369 0.7768057858245263
| 24> H -4.116722767937265 1.4077485686935365 1.3695511999628442
| 25> H -3.4580141815136707 -0.6052301156186527 -1.7705240787450183
| 26> H -2.5037376536494036 -1.8714664175294435 -0.9810334318295896
| 27> H -4.228213681665862 -1.731355976683425 -0.6479953332634153
| 28> H -2.0830551921100384 1.1867208022898172 -0.8605777751437079
| 29> H -0.2551602537502178 -0.22601276392035047 0.9506926814496515
| 30> H -0.6028698747986606 -0.7675662171827177 -0.7063556629069176
| 31> H 0.43404123808518297 2.029049695325561 0.01622785188987049
| 32> H 0.8257640845186701 1.964144295317653 -2.314469720407949
| 33> H 1.4910760195648762 -0.7548485402397552 -2.3297743649355973
| 34> H 3.781542811582925 -1.6977464710023111 -2.3509066358245208
| 35> H 5.905821560168279 -1.1981873756919565 0.2772304753423696
| 36> H 5.873762507966289 0.9488031958619532 0.6384469262755625
| 37> H 2.564309255402369 1.7340580610563148 1.0414807720625436
| 38> *
| 39>
| 40>                          ****END OF INPUT****

CARTESIAN COORDINATES (ANGSTROEM)
---------------------------------
  C     -2.793252   -0.995541    1.627666
  C     -3.031041   -0.193964    0.337867
  C     -4.266475    0.703356    0.542450
  C     -3.315507   -1.152201   -0.831275
  N     -1.914643    0.716460    0.034416
  C     -0.578168    0.103337   -0.042988
  C      0.448347    1.120905   -0.599194
  O      0.055098    1.519409   -1.921022
  C      1.852937    0.554646   -0.638613
  C      2.219401   -0.410020   -1.596953
  C      3.510638   -0.942944   -1.618671
  C      4.435821   -0.514889   -0.679268
  O      5.674743   -1.086641   -0.663443
  C      4.096012    0.459681    0.253346
  O      5.029508    0.939067    1.126188
  C      2.810272    0.983875    0.293958
  H     -1.975767   -1.716256    1.516531
  H     -3.688085   -1.564862    1.905334
  H     -2.550562   -0.335024    2.468165
  H     -4.492795    1.287983   -0.357400
  H     -5.155025    0.105513    0.776806
  H     -4.116723    1.407749    1.369551
  H     -3.458014   -0.605230   -1.770524
  H     -2.503738   -1.871466   -0.981033
  H     -4.228214   -1.731356   -0.647995
  H     -2.083055    1.186721   -0.860578
  H     -0.255160   -0.226013    0.950693
  H     -0.602870   -0.767566   -0.706356
  H      0.434041    2.029050    0.016228
  H      0.825764    1.964144   -2.314470
  H      1.491076   -0.754849   -2.329774
  H      3.781543   -1.697746   -2.350907
  H      5.905822   -1.198187    0.277230
  H      5.873763    0.948803    0.638447
  H      2.564309    1.734058    1.041481

 Total Charge           Charge          ....    0
 Multiplicity           Mult            ....    1
 Number of Electrons    NEL             ....  122
 Basis Dimension        Dim             ....  319

ORBITAL ENERGIES
----------------

  NO   OCC          E(Eh)            E(eV)
   0   2.0000     -20.594199      -560.3966
   1   2.0000     -20.593706      -560.3832
   2   2.0000     -20.551059      -559.2227
   3   2.0000     -15.526428      -422.4956
   4   2.0000     -11.305101      -307.6274
   5   2.0000     -11.302816      -307.5653
   6   2.0000     -11.288682      -307.1806
   7   2.0000     -11.255234      -306.2705
   8   2.0000     -11.249897      -306.1253
   9   2.0000     -11.248358      -306.0834
  10   2.0000     -11.246832      -306.0419
  11   2.0000     -11.246595      -306.0354
  12   2.0000     -11.244706      -305.9840
  13   2.0000     -11.216075      -305.2049
  14   2.0000     -11.212224      -305.1001
  15   2.0000     -11.209729      -305.0322
  16   2.0000      -1.415453       -38.5164
  17   2.0000      -1.380864       -37.5752
  18   2.0000      -1.341546       -36.5053
  19   2.0000      -1.188371       -32.3372
  20   2.0000      -1.146749       -31.2046
  21   2.0000      -1.049617       -28.5615
  22   2.0000      -1.023098       -27.8399
  23   2.0000      -1.007204       -27.4074
  24   2.0000      -0.941567       -25.6214
  25   2.0000      -0.919597       -25.0235
  26   2.0000      -0.914414       -24.8825
  27   2.0000      -0.850311       -23.1381
  28   2.0000      -0.846962       -23.0470
  29   2.0000      -0.800194       -21.7744
  30   2.0000      -0.767049       -20.8725
  31   2.0000      -0.741523       -20.1779
  32   2.0000      -0.711673       -19.3656
  33   2.0000      -0.705548       -19.1989
  34   2.0000      -0.668224       -18.1833
  35   2.0000      -0.658193       -17.9103
  36   2.0000      -0.645073       -17.5533
  37   2.0000      -0.635076       -17.2813
  38   2.0000      -0.617835       -16.8121
  39   2.0000      -0.612124       -16.6568
  40   2.0000      -0.607394       -16.5280
  41   2.0000      -0.595832       -16.2134
  42   2.0000      -0.581970       -15.8362
  43   2.0000      -0.576105       -15.6766
  44   2.0000      -0.570701       -15.5296
  45   2.0000      -0.557147       -15.1607
  46   2.0000      -0.551652       -15.0112
  47   2.0000      -0.540701       -14.7132
  48   2.0000      -0.524159       -14.2631
  49   2.0000      -0.520511       -14.1638
  50   2.0000      -0.509270       -13.8579
  51   2.0000      -0.506006       -13.7691
  52   2.0000      -0.504683       -13.7331
  53   2.0000      -0.483029       -13.1439
  54   2.0000      -0.477590       -12.9959
  55   2.0000      -0.467566       -12.7231
  56   2.0000      -0.452505       -12.3133
  57   2.0000      -0.444347       -12.0913
  58   2.0000      -0.356336        -9.6964
  59   2.0000      -0.342417        -9.3177
  60   2.0000      -0.319701        -8.6995
  61   0.0000       0.122586         3.3357
  62   0.0000       0.132018         3.5924
  63   0.0000       0.165829         4.5124
  64   0.0000       0.172168         4.6849
  65   0.0000       0.192279         5.2322

MULLIKEN ATOMIC CHARGES
-----------------------
   0 C :    0.038625
   1 C :   -0.252928
   2 C :    0.069133
   3 C :    0.055945
   4 N :   -0.481670
   5 C :    0.237897
   6 C :    0.312161
   7 O :   -0.468701
   8 C :   -0.219664
   9 C :   -0.004314
  10 C :   -0.047521
  11 C :    0.181063
  12 O :   -0.397472
  13 C :    0.195760
  14 O :   -0.392798
  15 C :   -0.034991
  16 H :    0.027976
  17 H :    0.028558
  18 H :    0.037920
  19 H :    0.019106
  20 H :    0.017192
  21 H :    0.034024
  22 H :    0.024707
  23 H :    0.025759
  24 H :    0.020927
  25 H :    0.142403
  26 H :    0.031193
  27 H :    0.004119
  28 H :    0.024555
  29 H :    0.200821
  30 H :    0.051022
  31 H :    0.048344
  32 H :    0.214697
  33 H :    0.214174
  34 H :    0.041980
Sum of atomic charges:    0.0000000

LOEWDIN ATOMIC CHARGES
----------------------
   0 C :   -0.025798
   1 C :    0.003457
   2 C :   -0.023128
   3 C :   -0.035028
   4 N :   -0.158479
   5 C :    0.064240
   6 C :    0.118534
   7 O :   -0.200782
   8 C :   -0.057298
   9 C :   -0.026571
  10 C :   -0.030549
  11 C :    0.031628
  12 O :   -0.129133
  13 C :    0.039190
  14 O :   -0.127905
  15 C :   -0.035282
  16 H :    0.012157
  17 H :    0.018674
  18 H :    0.019390
  19 H :    0.011706
  20 H :    0.010790
  21 H :    0.017327
  22 H :    0.013848
  23 H :    0.011131
  24 H :    0.014437
  25 H :    0.056416
  26 H :    0.014883
  27 H :   -0.003839
  28 H :    0.008831
  29 H :    0.085463
  30 H :    0.030071
  31 H :    0.037025
  32 H :    0.099846
  33 H :    0.099481
  34 H :    0.035268

  Mayer bond orders larger than 0.100000
B(  0-C ,  1-C ) :   1.0047 B(  0-C , 16-H ) :   0.9819 B(  0-C , 17-H ) :   0.9833
B(  0-C , 18-H ) :   0.9814 B(  1-C ,  2-C ) :   1.0178 B(  1-C ,  3-C ) :   0.9939
B(  1-C ,  4-N ) :   0.9280 B(  2-C , 19-H ) :   0.9817 B(  2-C , 20-H ) :   0.9837
B(  2-C , 21-H ) :   0.9832 B(  3-C , 22-H ) :   0.9809 B(  3-C , 23-H ) :   0.9814
B(  3-C , 24-H ) :   0.9797 B(  4-N ,  5-C ) :   0.9637 B(  4-N , 25-H ) :   0.9444
B(  5-C ,  6-C ) :   1.0327 B(  5-C , 26-H ) :   0.9661 B(  5-C , 27-H ) :   0.9556
B(  6-C ,  7-O ) :   0.9049 B(  6-C ,  8-C ) :   0.9984 B(  6-C , 28-H ) :   0.9709
B(  7-O , 29-H ) :   0.9661 B(  8-C ,  9-C ) :   1.3921 B(  8-C , 15-C ) :   1.4044
B(  9-C , 10-C ) :   1.4140 B(  9-C , 30-H ) :   1.0029 B( 10-C , 11-C ) :   1.3907
B( 10-C , 31-H ) :   1.0083 B( 11-C , 12-O ) :   1.0302 B( 11-C , 13-C ) :   1.3226
B( 12-O , 32-H ) :   0.9574 B( 13-C , 14-O ) :   1.0422 B( 13-C , 15-C ) :   1.3944
B( 14-O , 33-H ) :   0.9558 B( 15-C , 34-H ) :   1.0096

FINAL SINGLE POINT ENERGY      -743.940148500887

DIPOLE MOMENT
-------------
                                X             Y             Z
Electronic contribution:     29.43774       3.54350      -3.41332
Nuclear contribution   :    -28.73273      -3.79168       3.43857
                        -----------------------------------------
Total Dipole Moment    :      0.70501      -0.24818       0.02525
                        -----------------------------------------
Magnitude (a.u.)       :      0.74784
Magnitude (Debye)      :      1.90086

Rotational constants in cm-1:     0.040455     0.006568     0.006475
Rotational constants in MHz :  1212.819431   196.909551   194.114564

                             ****ORCA TERMINATED NORMALLY****
TOTAL RUN TIME: 0 days 0 hours 0 minutes 13 seconds 373 msec
