                         Program Version 5.0.3 -  RELEASE  -
|  1> !RHF def2-SVP TightSCF PAL16
|  2> *xyz 0 1
|  3> C -1.0559051085102213 2.7286873244134022 -1.4115204095456617
|  4> C -1.1687283192623192 1.4609230907006145 -0.5747437977608458
|  5> N -2.2877305325418282 0.8257405707657279 -0.7278080474019832
|  6> C -2.626242648305727 -0.2949416915795904 0.041374093726836515
|  7> C -3.9246253041047345 -0.36120387700263823 0.5570726642795435
|  8> C -4.351574595279439 -1.4671972859000832 1.294091411040549
|  9> C -3.4808158479541076 -2.5304556223256944 1.5133718373373783
| 10> C -2.187177356440785 -2.486197609933517 0.995288963837505
| 11> C -1.7575162300994187 -1.3720616456296546 0.2569444474257297
| 12> C -0.3617590033187026 -1.3038156900459514 -0.2951820400369959
| 13> C 0.4517471287785521 -0.2010667173500186 0.40683243544404935
| 14> C 1.893723688204684 -0.25039640206650554 -0.09939086616723303
| 15> C 2.2144943532914336 0.10389635004596359 -1.4208368852770492
| 16> C 3.5339924561040377 0.05012382374524861 -1.8716549320409797
| 17> C 4.549114343121983 -0.3591604384580774 -1.0098399532093074
| 18> C 4.246821043578022 -0.7148446358800584 0.3030980735408077
| 19> C 2.9275884117478275 -0.6618919790826924 0.7570405959041158
| 20> N -0.1015830430749822 1.1615599133654324 0.26131717856784403
| 21> C 0.6471132059412621 2.2282140772210512 0.9195027360879057
| 22> H -1.734768761611037 2.682838314071692 -2.2685089910828076
| 23> H -1.3233459587908876 3.5930211912316317 -0.7973146620831616
| 24> H -0.03494620192227127 2.8473323304665183 -1.7845783729904066
| 25> H -4.608748988599795 0.4632625822395641 0.3740868458547238
| 26> H -5.363729303626413 -1.497586171173299 1.6874169408135904
| 27> H -3.810919593676216 -3.3954387647634987 2.082438167201956
| 28> H -1.5178763639013377 -3.3253422442575866 1.168155100103013
| 29> H 0.13720343796142517 -2.273102046994841 -0.16071792519811265
| 30> H -0.41502075404837746 -1.1491701485729997 -1.3812276400504335
| 31> H 0.45407058154750773 -0.42537654220921234 1.483074669495412
| 32> H 1.432854794068438 0.42935897699864056 -2.104823923581003
| 33> H 3.768812889801217 0.32780323668601136 -2.8960392860443958
| 34> H 5.5765010058095035 -0.401525068781571 -1.3621553342929678
| 35> H 5.03996914635828 -1.0349892388330941 0.9740851603933784
| 36> H 2.713382735158995 -0.9446971454608027 1.7854875791370082
| 37> H 1.1569044902445726 1.8631187468479555 1.8177696808314743
| 38> H -0.026447516246522838 3.0289412435730587 1.2435790029734093
| 39> H 1.3951677195974028 2.655639193929764 0.2443154827676326
| 40> *
| 41>
| 42>                          ****END OF INPUT****

CARTESIAN COORDINATES (ANGSTROEM)
---------------------------------
  C     -1.055905    2.728687   -1.411520
  C     -1.168728    1.460923   -0.574744
  N     -2.287731    0.825741   -0.727808
  C     -2.626243   -0.294942    0.041374
  C     -3.924625   -0.361204    0.557073
  C     -4.351575   -1.467197    1.294091
  C     -3.480816   -2.530456    1.513372
  C     -2.187177   -2.486198    0.995289
  C     -1.757516   -1.372062    0.256944
  C     -0.361759   -1.303816   -0.295182
  C      0.451747   -0.201067    0.406832
  C      1.893724   -0.250396   -0.099391
  C      2.214494    0.103896   -1.420837
  C      3.533992    0.050124   -1.871655
  C      4.549114   -0.359160   -1.009840
  C      4.246821   -0.714845    0.303098
  C      2.927588   -0.661892    0.757041
  N     -0.101583    1.161560    0.261317
  C      0.647113    2.228214    0.919503
  H     -1.734769    2.682838   -2.268509
  H     -1.323346    3.593021   -0.797315
  H     -0.034946    2.847332   -1.784578
  H     -4.608749    0.463263    0.374087
  H     -5.363729   -1.497586    1.687417
  H     -3.810920   -3.395439    2.082438
  H     -1.517876   -3.325342    1.168155
  H      0.137203   -2.273102   -0.160718
  H     -0.415021   -1.149170   -1.381228
  H      0.454071   -0.425377    1.483075
  H      1.432855    0.429359   -2.104824
  H      3.768813    0.327803   -2.896039
  H      5.576501   -0.401525   -1.362155
  H      5.039969   -1.034989    0.974085
  H      2.713383   -0.944697    1.785488
  H      1.156904    1.863119    1.817770
  H     -0.026448    3.028941    1.243579
  H      1.395168    2.655639    0.244315

 Total Charge           Charge          ....    0
 Multiplicity           Mult            ....    1
 Number of Electrons    NEL             ....  134
 Basis Dimension        Dim             ....  356

ORBITAL ENERGIES
----------------

  NO   OCC          E(Eh)            E(eV)
   0   2.0000     -15.574119      -423.7933
   1   2.0000     -15.530047      -422.5941
   2   2.0000     -11.323155      -308.1187
   3   2.0000     -11.285385      -307.0909
   4   2.0000     -11.271765      -306.7203
   5   2.0000     -11.254168      -306.2415
   6   2.0000     -11.248697      -306.0926
   7   2.0000     -11.246016      -306.0197
   8   2.0000     -11.245629      -306.0091
   9   2.0000     -11.244424      -305.9763
  10   2.0000     -11.244310      -305.9732
  11   2.0000     -11.242317      -305.9190
  12   2.0000     -11.237989      -305.8012
  13   2.0000     -11.230598      -305.6001
  14   2.0000     -11.229689      -305.5754
  15   2.0000     -11.227526      -305.5165
  16   2.0000     -11.226058      -305.4766
  17   2.0000     -11.222520      -305.3803
  18   2.0000     -11.219221      -305.2905
  19   2.0000      -1.272817       -34.6351
  20   2.0000      -1.189386       -32.3648
  21   2.0000      -1.148794       -31.2603
  22   2.0000      -1.124005       -30.5857
  23   2.0000      -1.064895       -28.9773
  24   2.0000      -1.017382       -27.6844
  25   2.0000      -1.010068       -27.4853
  26   2.0000      -1.006537       -27.3893
  27   2.0000      -0.963261       -26.2117
  28   2.0000      -0.955351       -25.9964
  29   2.0000      -0.914184       -24.8762
  30   2.0000      -0.878141       -23.8954
  31   2.0000      -0.828150       -22.5351
  32   2.0000      -0.814370       -22.1601
  33   2.0000      -0.802046       -21.8248
  34   2.0000      -0.788052       -21.4440
  35   2.0000      -0.733240       -19.9525
  36   2.0000      -0.706886       -19.2354
  37   2.0000      -0.688465       -18.7341
  38   2.0000      -0.671339       -18.2681
  39   2.0000      -0.660256       -17.9665
  40   2.0000      -0.645451       -17.5636
  41   2.0000      -0.630795       -17.1648
  42   2.0000      -0.628251       -17.0956
  43   2.0000      -0.615141       -16.7388
  44   2.0000      -0.599241       -16.3062
  45   2.0000      -0.593835       -16.1591
  46   2.0000      -0.586778       -15.9670
  47   2.0000      -0.579331       -15.7644
  48   2.0000      -0.571218       -15.5436
  49   2.0000      -0.565543       -15.3892
  50   2.0000      -0.557212       -15.1625
  51   2.0000      -0.544811       -14.8251
  52   2.0000      -0.533924       -14.5288
  53   2.0000      -0.525315       -14.2945
  54   2.0000      -0.512298       -13.9403
  55   2.0000      -0.504854       -13.7378
  56   2.0000      -0.499001       -13.5785
  57   2.0000      -0.495884       -13.4937
  58   2.0000      -0.485722       -13.2172
  59   2.0000      -0.472647       -12.8614
  60   2.0000      -0.445224       -12.1152
  61   2.0000      -0.409530       -11.1439
  62   2.0000      -0.360049        -9.7974
  63   2.0000      -0.345139        -9.3917
  64   2.0000      -0.337059        -9.1719
  65   2.0000      -0.320173        -8.7124
  66   2.0000      -0.290445        -7.9034
  67   0.0000       0.114194         3.1074
  68   0.0000       0.122925         3.3450
  69   0.0000       0.133283         3.6268
  70   0.0000       0.147361         4.0099
  71   0.0000       0.166551         4.5321

MULLIKEN ATOMIC CHARGES
-----------------------
   0 C :    0.039564
   1 C :    0.223229
   2 N :   -0.403906
   3 C :    0.168187
   4 C :   -0.037610
   5 C :   -0.021869
   6 C :   -0.044819
   7 C :   -0.026273
   8 C :   -0.212653
   9 C :    0.142366
  10 C :    0.247510
  11 C :   -0.148287
  12 C :   -0.021083
  13 C :   -0.030065
  14 C :   -0.040964
  15 C :   -0.030931
  16 C :   -0.024606
  17 N :   -0.683986
  18 C :    0.201946
  19 H :    0.066689
  20 H :    0.050091
  21 H :    0.032969
  22 H :    0.026422
  23 H :    0.035258
  24 H :    0.031144
  25 H :    0.021658
  26 H :    0.036116
  27 H :    0.054281
  28 H :    0.029623
  29 H :    0.041743
  30 H :    0.041818
  31 H :    0.042313
  32 H :    0.041243
  33 H :    0.032038
  34 H :    0.045651
  35 H :    0.041338
  36 H :    0.033856
Sum of atomic charges:   -0.0000000

LOEWDIN ATOMIC CHARGES
----------------------
   0 C :   -0.033639
   1 C :    0.132904
   2 N :   -0.210679
   3 C :    0.022610
   4 C :   -0.028485
   5 C :   -0.025766
   6 C :   -0.044891
   7 C :   -0.026427
   8 C :   -0.057996
   9 C :   -0.000150
  10 C :    0.089087
  11 C :   -0.034585
  12 C :   -0.022961
  13 C :   -0.019494
  14 C :   -0.030317
  15 C :   -0.020612
  16 C :   -0.031376
  17 N :   -0.167690
  18 C :    0.077255
  19 H :    0.037632
  20 H :    0.030772
  21 H :    0.017740
  22 H :    0.027167
  23 H :    0.024721
  24 H :    0.022392
  25 H :    0.021734
  26 H :    0.030171
  27 H :    0.027090
  28 H :    0.013778
  29 H :    0.024914
  30 H :    0.027781
  31 H :    0.026702
  32 H :    0.027301
  33 H :    0.023870
  34 H :    0.023037
  35 H :    0.018146
  36 H :    0.008262

  Mayer bond orders larger than 0.100000
B(  0-C ,  1-C ) :   1.0050 B(  0-C , 19-H ) :   0.9772 B(  0-C , 20-H ) :   0.9692
B(  0-C , 21-H ) :   0.9794 B(  1-C ,  2-N ) :   1.8867 B(  1-C , 17-N ) :   1.0400
B(  2-N ,  3-C ) :   1.0448 B(  3-C ,  4-C ) :   1.4214 B(  3-C ,  8-C ) :   1.3839
B(  4-C ,  5-C ) :   1.4146 B(  4-C , 22-H ) :   1.0062 B(  5-C ,  6-C ) :   1.3993
B(  5-C , 23-H ) :   1.0001 B(  6-C ,  7-C ) :   1.4237 B(  6-C , 24-H ) :   1.0014
B(  7-C ,  8-C ) :   1.4256 B(  7-C , 25-H ) :   1.0039 B(  8-C ,  9-C ) :   1.0103
B(  9-C , 10-C ) :   1.0460 B(  9-C , 26-H ) :   0.9617 B(  9-C , 27-H ) :   0.9498
B( 10-C , 11-C ) :   0.9780 B( 10-C , 17-N ) :   0.8773 B( 10-C , 28-H ) :   0.9706
B( 11-C , 12-C ) :   1.3867 B( 11-C , 16-C ) :   1.4314 B( 12-C , 13-C ) :   1.4395
B( 12-C , 29-H ) :   1.0004 B( 13-C , 14-C ) :   1.4017 B( 13-C , 30-H ) :   1.0009
B( 14-C , 15-C ) :   1.4238 B( 14-C , 31-H ) :   0.9999 B( 15-C , 16-C ) :   1.4135
B( 15-C , 32-H ) :   0.9994 B( 16-C , 33-H ) :   1.0017 B( 17-N , 18-C ) :   0.8961
B( 18-C , 34-H ) :   0.9872 B( 18-C , 35-H ) :   0.9909 B( 18-C , 36-H ) :   0.9826

FINAL SINGLE POINT ENERGY      -762.565637502881

DIPOLE MOMENT
-------------
                                X             Y             Z
Electronic contribution:     -3.82019      -5.17099       0.13083
Nuclear contribution   :      5.08086       5.53228       0.23684
                        -----------------------------------------
Total Dipole Moment    :      1.26067       0.36129       0.36767
                        -----------------------------------------
Magnitude (a.u.)       :      1.36198
Magnitude (Debye)      :      3.46189

Rotational constants in cm-1:     0.024586     0.008258     0.006909
Rotational constants in MHz :   737.054788   247.571902   207.115500

                             ****ORCA TERMINATED NORMALLY****
TOTAL RUN TIME: 0 days 0 hours 0 minutes 21 seconds 957 msec
