                         Program Version 5.0.3 -  RELEASE  -
|  1> !RHF def2-SVP TightSCF PAL16
|  2> *xyz 0 1
|  3> C 4.054129893212983 -0.3928546682132665 1.2301912806274786
|  4> N 3.1703691227310147 -0.7046969991988037 0.11021817325082599
|  5> C 2.339543904135678 -1.8836792413977332 0.4175507468452174
|  6> C 1.0552531702209358 -1.9736818783118726 -0.43432430675154204
|  7> N 0.15849124193953812 -0.8146874208219029 -0.20763183720863734
|  8> C -1.2133924155699911 -0.9897570785210822 -0.37583993949285216
|  9> C -1.6893119898753166 -2.004635148678529 -1.2388537000273823
| 10> C -3.04936119527273 -2.2600940903184608 -1.4458368896364007
| 11> C -3.9996635885525653 -1.4955172355687334 -0.7946253171387632
| 12> C -3.581703577094034 -0.4735894167505082 0.048114702281933444
| 13> C -2.20710071853339 -0.2061790129315538 0.25905380864290045
| 14> C -1.8773582141701242 0.939232774178383 1.1817165736781567
| 15> N -1.1203108202198202 1.9481603163979258 0.4612670530996324
| 16> C -1.551364826365454 3.201004807697144 0.1217588666141935
| 17> C -0.5619855376882803 3.792712505522864 -0.6305102250248044
| 18> C 0.5015839704037778 2.8630828120781233 -0.7367260570309446
| 19> C 0.1429436104665588 1.7271774856459705 -0.031978036058924124
| 20> C 0.8392628971142894 0.4237759634121829 0.2678520542191512
| 21> C 2.3199923717059345 0.45420400586505033 -0.2589551852117804
| 22> H 3.498311343959393 -0.09572022410029973 2.1267848100589037
| 23> H 4.738500466932556 0.4201525553338989 0.9637165642739044
| 24> H 4.678136313290766 -1.2580879204505546 1.4804092564482674
| 25> H 2.041109780640882 -1.8812364968399404 1.4752081018152081
| 26> H 2.9396414237754884 -2.7866040089400985 0.2549757149757845
| 27> H 0.5593022323112602 -2.910797392983376 -0.15151554756381777
| 28> H 1.3167586089845087 -2.031820827871238 -1.4982417129966579
| 29> H -0.9914726839783428 -2.6146818733799586 -1.8069906594699994
| 30> H -3.3539951171269604 -3.050960553980812 -2.125583623947572
| 31> H -5.058065385868326 -1.681807759616328 -0.9513346863334994
| 32> H -4.340121552407077 0.13207887192748488 0.5406927112557518
| 33> H -1.2896243135488012 0.6015668920702802 2.042097961060638
| 34> H -2.7780121431629876 1.4224479681248408 1.5778789036519374
| 35> H -2.526700176097079 3.5632242836864143 0.41816437090635683
| 36> H -0.6048071860190128 4.782775925927203 -1.0652210507182478
| 37> H 1.4306019410782667 3.018594370847238 -1.269897234335594
| 38> H 0.9073698391877606 0.35204775115964587 1.3635001633828392
| 39> H 2.8124920946801257 1.3889341001599944 0.04036683888564962
| 40> H 2.2905572147533784 0.4799158588502338 -1.3574526470235166
| 41> *
| 42>
| 43>                          ****END OF INPUT****

CARTESIAN COORDINATES (ANGSTROEM)
---------------------------------
  C      4.054130   -0.392855    1.230191
  N      3.170369   -0.704697    0.110218
  C      2.339544   -1.883679    0.417551
  C      1.055253   -1.973682   -0.434324
  N      0.158491   -0.814687   -0.207632
  C     -1.213392   -0.989757   -0.375840
  C     -1.689312   -2.004635   -1.238854
  C     -3.049361   -2.260094   -1.445837
  C     -3.999664   -1.495517   -0.794625
  C     -3.581704   -0.473589    0.048115
  C     -2.207101   -0.206179    0.259054
  C     -1.877358    0.939233    1.181717
  N     -1.120311    1.948160    0.461267
  C     -1.551365    3.201005    0.121759
  C     -0.561986    3.792713   -0.630510
  C      0.501584    2.863083   -0.736726
  C      0.142944    1.727177   -0.031978
  C      0.839263    0.423776    0.267852
  C      2.319992    0.454204   -0.258955
  H      3.498311   -0.095720    2.126785
  H      4.738500    0.420153    0.963717
  H      4.678136   -1.258088    1.480409
  H      2.041110   -1.881236    1.475208
  H      2.939641   -2.786604    0.254976
  H      0.559302   -2.910797   -0.151516
  H      1.316759   -2.031821   -1.498242
  H     -0.991473   -2.614682   -1.806991
  H     -3.353995   -3.050961   -2.125584
  H     -5.058065   -1.681808   -0.951335
  H     -4.340122    0.132079    0.540693
  H     -1.289624    0.601567    2.042098
  H     -2.778012    1.422448    1.577879
  H     -2.526700    3.563224    0.418164
  H     -0.604807    4.782776   -1.065221
  H      1.430602    3.018594   -1.269897
  H      0.907370    0.352048    1.363500
  H      2.812492    1.388934    0.040367
  H      2.290557    0.479916   -1.357453

 Total Charge           Charge          ....    0
 Multiplicity           Mult            ....    1
 Number of Electrons    NEL             ....  136
 Basis Dimension        Dim             ....  361

ORBITAL ENERGIES
----------------

  NO   OCC          E(Eh)            E(eV)
   0   2.0000     -15.600669      -424.5158
   1   2.0000     -15.568349      -423.6363
   2   2.0000     -15.548944      -423.1083
   3   2.0000     -11.287027      -307.1356
   4   2.0000     -11.286495      -307.1212
   5   2.0000     -11.282738      -307.0189
   6   2.0000     -11.270958      -306.6984
   7   2.0000     -11.261057      -306.4289
   8   2.0000     -11.261026      -306.4281
   9   2.0000     -11.254102      -306.2397
  10   2.0000     -11.253544      -306.2245
  11   2.0000     -11.250310      -306.1365
  12   2.0000     -11.240161      -305.8603
  13   2.0000     -11.237653      -305.7921
  14   2.0000     -11.235777      -305.7410
  15   2.0000     -11.227497      -305.5157
  16   2.0000     -11.221708      -305.3582
  17   2.0000     -11.209790      -305.0339
  18   2.0000     -11.205612      -304.9202
  19   2.0000      -1.297834       -35.3159
  20   2.0000      -1.247394       -33.9433
  21   2.0000      -1.203575       -32.7510
  22   2.0000      -1.131440       -30.7880
  23   2.0000      -1.076334       -29.2885
  24   2.0000      -1.044019       -28.4092
  25   2.0000      -1.013715       -27.5846
  26   2.0000      -1.001494       -27.2520
  27   2.0000      -0.963457       -26.2170
  28   2.0000      -0.948125       -25.7998
  29   2.0000      -0.912404       -24.8278
  30   2.0000      -0.880746       -23.9663
  31   2.0000      -0.872010       -23.7286
  32   2.0000      -0.810815       -22.0634
  33   2.0000      -0.797367       -21.6974
  34   2.0000      -0.778109       -21.1734
  35   2.0000      -0.747165       -20.3314
  36   2.0000      -0.737785       -20.0762
  37   2.0000      -0.706268       -19.2185
  38   2.0000      -0.689927       -18.7739
  39   2.0000      -0.672987       -18.3129
  40   2.0000      -0.660155       -17.9637
  41   2.0000      -0.655250       -17.8303
  42   2.0000      -0.633974       -17.2513
  43   2.0000      -0.620350       -16.8806
  44   2.0000      -0.614176       -16.7126
  45   2.0000      -0.601942       -16.3797
  46   2.0000      -0.594198       -16.1690
  47   2.0000      -0.586024       -15.9465
  48   2.0000      -0.576608       -15.6903
  49   2.0000      -0.569671       -15.5015
  50   2.0000      -0.557324       -15.1656
  51   2.0000      -0.543657       -14.7936
  52   2.0000      -0.539629       -14.6841
  53   2.0000      -0.538245       -14.6464
  54   2.0000      -0.527075       -14.3425
  55   2.0000      -0.518633       -14.1127
  56   2.0000      -0.517680       -14.0868
  57   2.0000      -0.503680       -13.7058
  58   2.0000      -0.498881       -13.5752
  59   2.0000      -0.491646       -13.3784
  60   2.0000      -0.487260       -13.2590
  61   2.0000      -0.476582       -12.9685
  62   2.0000      -0.407031       -11.0759
  63   2.0000      -0.356263        -9.6944
  64   2.0000      -0.338503        -9.2111
  65   2.0000      -0.327905        -8.9228
  66   2.0000      -0.292875        -7.9695
  67   2.0000      -0.282323        -7.6824
  68   0.0000       0.130558         3.5527
  69   0.0000       0.143650         3.9089
  70   0.0000       0.164536         4.4773
  71   0.0000       0.177479         4.8294
  72   0.0000       0.183935         5.0051

MULLIKEN ATOMIC CHARGES
-----------------------
   0 C :    0.152223
   1 N :   -0.660148
   2 C :    0.202125
   3 C :    0.192958
   4 N :   -0.741992
   5 C :    0.344093
   6 C :   -0.139569
   7 C :    0.012910
   8 C :   -0.065790
   9 C :   -0.008896
  10 C :   -0.267112
  11 C :    0.375757
  12 N :   -0.521122
  13 C :    0.131785
  14 C :   -0.089885
  15 C :   -0.130780
  16 C :    0.102126
  17 C :    0.242054
  18 C :    0.234473
  19 H :    0.005063
  20 H :    0.036725
  21 H :    0.031254
  22 H :    0.009394
  23 H :    0.036416
  24 H :    0.047763
  25 H :    0.038883
  26 H :    0.032384
  27 H :    0.037101
  28 H :    0.030900
  29 H :    0.025670
  30 H :    0.050183
  31 H :    0.036378
  32 H :    0.042716
  33 H :    0.031871
  34 H :    0.024764
  35 H :    0.030657
  36 H :    0.043989
  37 H :    0.042678
Sum of atomic charges:   -0.0000000

LOEWDIN ATOMIC CHARGES
----------------------
   0 C :    0.054981
   1 N :   -0.207049
   2 C :    0.060418
   3 C :    0.080332
   4 N :   -0.167410
   5 C :    0.076212
   6 C :   -0.070098
   7 C :   -0.006202
   8 C :   -0.065340
   9 C :   -0.008115
  10 C :   -0.085576
  11 C :    0.096157
  12 N :   -0.009737
  13 C :    0.005892
  14 C :   -0.093474
  15 C :   -0.088358
  16 C :   -0.014514
  17 C :    0.062277
  18 C :    0.072777
  19 H :   -0.008057
  20 H :    0.013273
  21 H :    0.013426
  22 H :   -0.003303
  23 H :    0.016225
  24 H :    0.021714
  25 H :    0.008477
  26 H :    0.023687
  27 H :    0.027388
  28 H :    0.022626
  29 H :    0.023798
  30 H :    0.021116
  31 H :    0.026709
  32 H :    0.017973
  33 H :    0.020833
  34 H :    0.018913
  35 H :    0.006000
  36 H :    0.021021
  37 H :    0.015009

  Mayer bond orders larger than 0.100000
B(  0-C ,  1-N ) :   0.9397 B(  0-C , 19-H ) :   0.9769 B(  0-C , 20-H ) :   0.9921
B(  0-C , 21-H ) :   0.9894 B(  1-N ,  2-C ) :   0.9261 B(  1-N , 18-C ) :   0.9289
B(  2-C ,  3-C ) :   1.0870 B(  2-C , 22-H ) :   0.9599 B(  2-C , 23-H ) :   0.9681
B(  3-C ,  4-N ) :   0.8842 B(  3-C , 24-H ) :   0.9692 B(  3-C , 25-H ) :   0.9608
B(  4-N ,  5-C ) :   1.0080 B(  4-N , 17-C ) :   0.8317 B(  5-C ,  6-C ) :   1.3819
B(  5-C , 10-C ) :   1.3870 B(  6-C ,  7-C ) :   1.4260 B(  6-C , 26-H ) :   1.0003
B(  7-C ,  8-C ) :   1.4045 B(  7-C , 27-H ) :   0.9994 B(  8-C ,  9-C ) :   1.4222
B(  8-C , 28-H ) :   1.0017 B(  9-C , 10-C ) :   1.4516 B(  9-C , 29-H ) :   1.0006
B( 10-C , 11-C ) :   0.9866 B( 11-C , 12-N ) :   0.8841 B( 11-C , 30-H ) :   0.9729
B( 11-C , 31-H ) :   0.9738 B( 12-N , 13-C ) :   1.1436 B( 12-N , 16-C ) :   1.1237
B( 13-C , 14-C ) :   1.5779 B( 13-C , 32-H ) :   0.9956 B( 14-C , 15-C ) :   1.2942
B( 14-C , 33-H ) :   1.0052 B( 15-C , 16-C ) :   1.6164 B( 15-C , 34-H ) :   1.0142
B( 16-C , 17-C ) :   0.9869 B( 17-C , 18-C ) :   1.0647 B( 17-C , 35-H ) :   0.9451
B( 18-C , 36-H ) :   0.9734 B( 18-C , 37-H ) :   0.9598

FINAL SINGLE POINT ENERGY      -779.671727313976

DIPOLE MOMENT
-------------
                                X             Y             Z
Electronic contribution:    -10.45023       3.30713      -2.74207
Nuclear contribution   :     10.44252      -3.74094       3.47556
                        -----------------------------------------
Total Dipole Moment    :     -0.00771      -0.43381       0.73350
                        -----------------------------------------
Magnitude (a.u.)       :      0.85221
Magnitude (Debye)      :      2.16615

Rotational constants in cm-1:     0.017362     0.011731     0.007742
Rotational constants in MHz :   520.504128   351.676729   232.110993

                             ****ORCA TERMINATED NORMALLY****
TOTAL RUN TIME: 0 days 0 hours 0 minutes 23 seconds 11 msec
