                         Program Version 5.0.3 -  RELEASE  -
|  1> !RHF def2-SVP TightSCF PAL16
|  2> *xyz 0 1
|  3> O 4.17307912889745 1.9306486201269175 -1.609285756707267
|  4> C 4.778758661808051 0.8007454766665147 -0.9832789485766336
|  5> C 3.710863155305696 -0.04754836453901041 -0.29002936523256206
|  6> O 3.0725045417217385 0.8082840975668575 0.675355058210725
|  7> C 2.681980653108998 -0.5890660128072386 -1.2994031640464363
|  8> O 2.0370945556447944 -1.7717097963487707 -0.7980869322399688
|  9> C 0.8577655100888916 -1.547803813698013 -0.1815699867493609
| 10> N 0.7164297933798129 -0.48988659568132004 0.6167261552616301
| 11> N -0.5651417637699008 -0.6061330775851699 1.0505547815583924
| 12> C -1.111927386111901 0.4139196519641845 1.9359788327596157
| 13> C -1.7186304771299499 1.5538242007571352 1.1572147394504637
| 14> C -3.0991452645067024 1.6044194392072966 0.9125328100271906
| 15> C -3.6480788883662694 2.6554162818906653 0.1758583336001846
| 16> C -2.8260385099350795 3.6639234161853325 -0.3267273630451589
| 17> C -1.4533909615201728 3.622184616398689 -0.09318543255760615
| 18> C -0.9014211411279303 2.5723785943282182 0.641902522163445
| 19> C -1.1938938800636063 -1.7561715514374792 0.6224608208096181
| 20> C -2.4690654552784137 -2.2888136207756946 0.8635245027266696
| 21> C -2.787036469570629 -3.507107743033068 0.25420138348423543
| 22> C -1.8709511667108962 -4.165849401336962 -0.5644395050194769
| 23> C -0.6035331867760123 -3.6222281111543255 -0.799600146898382
| 24> C -0.26541209482076783 -2.3985878728268784 -0.19411760702328568
| 25> H 3.6141885738667403 2.325860524538516 -0.9105787575696803
| 26> H 5.317400307634597 0.22716044458666568 -1.7426108330267076
| 27> H 5.5019075626155205 1.1822097771029765 -0.25603304959135065
| 28> H 4.181817301472825 -0.8706594680391894 0.2583687222283403
| 29> H 2.2237276332459968 0.35967406035098165 0.8989904551722917
| 30> H 1.9507703752733105 0.1736050559943818 -1.6013450351923553
| 31> H 3.2025567641075425 -0.9121112707317912 -2.208325635527453
| 32> H -0.29874360187617005 0.7717983644669074 2.5782617053143553
| 33> H -1.8498592535301954 -0.05751155927365691 2.593656472131681
| 34> H -3.759189487138631 0.8269095015607547 1.290041711289132
| 35> H -4.718011177267956 2.686815500403132 -0.012478137011760284
| 36> H -3.2539042604919746 4.479971930650053 -0.9038499442595571
| 37> H -0.8095047007373584 4.403955796359729 -0.48925334522289843
| 38> H 0.1761614746119435 2.54862734270624 0.8038948422290797
| 39> H -3.192470698324616 -1.7868940686525991 1.496898356660882
| 40> H -3.767452761786729 -3.9472330728460285 0.42141569081928587
| 41> H -2.14287432355849 -5.111549139515642 -1.0279897406083665
| 42> H 0.10867091761727575 -4.135468153529632 -1.4394210270676038
| 43> *
| 44>
| 45>                          ****END OF INPUT****

CARTESIAN COORDINATES (ANGSTROEM)
---------------------------------
  O      4.173079    1.930649   -1.609286
  C      4.778759    0.800745   -0.983279
  C      3.710863   -0.047548   -0.290029
  O      3.072505    0.808284    0.675355
  C      2.681981   -0.589066   -1.299403
  O      2.037095   -1.771710   -0.798087
  C      0.857766   -1.547804   -0.181570
  N      0.716430   -0.489887    0.616726
  N     -0.565142   -0.606133    1.050555
  C     -1.111927    0.413920    1.935979
  C     -1.718630    1.553824    1.157215
  C     -3.099145    1.604419    0.912533
  C     -3.648079    2.655416    0.175858
  C     -2.826039    3.663923   -0.326727
  C     -1.453391    3.622185   -0.093185
  C     -0.901421    2.572379    0.641903
  C     -1.193894   -1.756172    0.622461
  C     -2.469065   -2.288814    0.863525
  C     -2.787036   -3.507108    0.254201
  C     -1.870951   -4.165849   -0.564440
  C     -0.603533   -3.622228   -0.799600
  C     -0.265412   -2.398588   -0.194118
  H      3.614189    2.325861   -0.910579
  H      5.317400    0.227160   -1.742611
  H      5.501908    1.182210   -0.256033
  H      4.181817   -0.870659    0.258369
  H      2.223728    0.359674    0.898990
  H      1.950770    0.173605   -1.601345
  H      3.202557   -0.912111   -2.208326
  H     -0.298744    0.771798    2.578262
  H     -1.849859   -0.057512    2.593656
  H     -3.759189    0.826910    1.290042
  H     -4.718011    2.686816   -0.012478
  H     -3.253904    4.479972   -0.903850
  H     -0.809505    4.403956   -0.489253
  H      0.176161    2.548627    0.803895
  H     -3.192471   -1.786894    1.496898
  H     -3.767453   -3.947233    0.421416
  H     -2.142874   -5.111549   -1.027990
  H      0.108671   -4.135468   -1.439421

 Total Charge           Charge          ....    0
 Multiplicity           Mult            ....    1
 Number of Electrons    NEL             ....  158
 Basis Dimension        Dim             ....  398

ORBITAL ENERGIES
----------------

  NO   OCC          E(Eh)            E(eV)
   0   2.0000     -20.589534      -560.2697
   1   2.0000     -20.533346      -558.7407
   2   2.0000     -20.524622      -558.5033
   3   2.0000     -15.634896      -425.4471
   4   2.0000     -15.604569      -424.6219
   5   2.0000     -11.342192      -308.6367
   6   2.0000     -11.297341      -307.4163
   7   2.0000     -11.292042      -307.2721
   8   2.0000     -11.291875      -307.2675
   9   2.0000     -11.276267      -306.8428
  10   2.0000     -11.270862      -306.6957
  11   2.0000     -11.267996      -306.6178
  12   2.0000     -11.264899      -306.5335
  13   2.0000     -11.257679      -306.3370
  14   2.0000     -11.250876      -306.1519
  15   2.0000     -11.247119      -306.0497
  16   2.0000     -11.246389      -306.0298
  17   2.0000     -11.245185      -305.9970
  18   2.0000     -11.244862      -305.9882
  19   2.0000     -11.243950      -305.9634
  20   2.0000     -11.242984      -305.9371
  21   2.0000     -11.242273      -305.9178
  22   2.0000      -1.424502       -38.7627
  23   2.0000      -1.367711       -37.2173
  24   2.0000      -1.335154       -36.3314
  25   2.0000      -1.303278       -35.4640
  26   2.0000      -1.162108       -31.6226
  27   2.0000      -1.157227       -31.4898
  28   2.0000      -1.123601       -30.5747
  29   2.0000      -1.052112       -28.6294
  30   2.0000      -1.038708       -28.2647
  31   2.0000      -1.015867       -27.6432
  32   2.0000      -1.009873       -27.4801
  33   2.0000      -1.002966       -27.2921
  34   2.0000      -0.936726       -25.4896
  35   2.0000      -0.911354       -24.7992
  36   2.0000      -0.874692       -23.8016
  37   2.0000      -0.838205       -22.8087
  38   2.0000      -0.825563       -22.4647
  39   2.0000      -0.814185       -22.1551
  40   2.0000      -0.800062       -21.7708
  41   2.0000      -0.780841       -21.2478
  42   2.0000      -0.737357       -20.0645
  43   2.0000      -0.724256       -19.7080
  44   2.0000      -0.709555       -19.3080
  45   2.0000      -0.703684       -19.1482
  46   2.0000      -0.673553       -18.3283
  47   2.0000      -0.662780       -18.0352
  48   2.0000      -0.657383       -17.8883
  49   2.0000      -0.648570       -17.6485
  50   2.0000      -0.646145       -17.5825
  51   2.0000      -0.639633       -17.4053
  52   2.0000      -0.633260       -17.2319
  53   2.0000      -0.624838       -17.0027
  54   2.0000      -0.619546       -16.8587
  55   2.0000      -0.606909       -16.5148
  56   2.0000      -0.594087       -16.1659
  57   2.0000      -0.591471       -16.0948
  58   2.0000      -0.580707       -15.8018
  59   2.0000      -0.565617       -15.3912
  60   2.0000      -0.562541       -15.3075
  61   2.0000      -0.551880       -15.0174
  62   2.0000      -0.538362       -14.6496
  63   2.0000      -0.526296       -14.3212
  64   2.0000      -0.513649       -13.9771
  65   2.0000      -0.510471       -13.8906
  66   2.0000      -0.503223       -13.6934
  67   2.0000      -0.499261       -13.5856
  68   2.0000      -0.497628       -13.5411
  69   2.0000      -0.490396       -13.3444
  70   2.0000      -0.481719       -13.1082
  71   2.0000      -0.471615       -12.8333
  72   2.0000      -0.430978       -11.7275
  73   2.0000      -0.426854       -11.6153
  74   2.0000      -0.393781       -10.7153
  75   2.0000      -0.350646        -9.5416
  76   2.0000      -0.343286        -9.3413
  77   2.0000      -0.340723        -9.2715
  78   2.0000      -0.302758        -8.2385
  79   0.0000       0.076299         2.0762
  80   0.0000       0.120603         3.2818
  81   0.0000       0.123726         3.3668
  82   0.0000       0.144472         3.9313
  83   0.0000       0.166112         4.5201

MULLIKEN ATOMIC CHARGES
-----------------------
   0 O :   -0.493615
   1 C :    0.305210
   2 C :    0.101578
   3 O :   -0.520759
   4 C :    0.288395
   5 O :   -0.560009
   6 C :    0.535834
   7 N :   -0.310142
   8 N :   -0.460462
   9 C :    0.345237
  10 C :   -0.165949
  11 C :   -0.030191
  12 C :   -0.033990
  13 C :   -0.037002
  14 C :   -0.033588
  15 C :   -0.021249
  16 C :    0.356676
  17 C :   -0.126341
  18 C :    0.015798
  19 C :   -0.077847
  20 C :    0.063850
  21 C :   -0.287816
  22 H :    0.209780
  23 H :    0.025470
  24 H :    0.029618
  25 H :    0.034590
  26 H :    0.252142
  27 H :    0.059297
  28 H :    0.040266
  29 H :    0.061911
  30 H :    0.043743
  31 H :    0.027878
  32 H :    0.041362
  33 H :    0.044092
  34 H :    0.046009
  35 H :    0.049917
  36 H :    0.031121
  37 H :    0.051759
  38 H :    0.046377
  39 H :    0.051048
Sum of atomic charges:   -0.0000000

LOEWDIN ATOMIC CHARGES
----------------------
   0 O :   -0.213994
   1 C :    0.121722
   2 C :    0.079364
   3 O :   -0.231220
   4 C :    0.133022
   5 O :   -0.191388
   6 C :    0.121792
   7 N :   -0.138606
   8 N :   -0.010820
   9 C :    0.094703
  10 C :   -0.047518
  11 C :   -0.027473
  12 C :   -0.021906
  13 C :   -0.024530
  14 C :   -0.019086
  15 C :   -0.016135
  16 C :    0.069287
  17 C :   -0.068319
  18 C :    0.015536
  19 C :   -0.063645
  20 C :    0.037738
  21 C :   -0.115955
  22 H :    0.084596
  23 H :    0.010962
  24 H :    0.007353
  25 H :    0.010883
  26 H :    0.043963
  27 H :    0.021038
  28 H :    0.020534
  29 H :    0.032480
  30 H :    0.024179
  31 H :    0.021405
  32 H :    0.027297
  33 H :    0.027617
  34 H :    0.029342
  35 H :    0.030756
  36 H :    0.025925
  37 H :    0.033081
  38 H :    0.029117
  39 H :    0.036901

  Mayer bond orders larger than 0.100000
B(  0-O ,  1-C ) :   0.9052 B(  0-O , 22-H ) :   0.9586 B(  1-C ,  2-C ) :   1.0254
B(  1-C , 23-H ) :   0.9713 B(  1-C , 24-H ) :   0.9815 B(  2-C ,  3-O ) :   0.9349
B(  2-C ,  4-C ) :   0.9867 B(  2-C , 25-H ) :   0.9605 B(  3-O , 26-H ) :   0.9150
B(  4-C ,  5-O ) :   0.8174 B(  4-C , 27-H ) :   0.9665 B(  4-C , 28-H ) :   0.9784
B(  5-O ,  6-C ) :   1.0820 B(  6-C ,  7-N ) :   1.5593 B(  6-C , 21-C ) :   1.2156
B(  7-N ,  8-N ) :   1.0740 B(  8-N ,  9-C ) :   0.8739 B(  8-N , 16-C ) :   1.0664
B(  9-C , 10-C ) :   0.9957 B(  9-C , 29-H ) :   0.9785 B(  9-C , 30-H ) :   0.9837
B( 10-C , 11-C ) :   1.4190 B( 10-C , 15-C ) :   1.4132 B( 11-C , 12-C ) :   1.4269
B( 11-C , 31-H ) :   1.0015 B( 12-C , 13-C ) :   1.4187 B( 12-C , 32-H ) :   0.9993
B( 13-C , 14-C ) :   1.4092 B( 13-C , 33-H ) :   0.9998 B( 14-C , 15-C ) :   1.4319
B( 14-C , 34-H ) :   0.9999 B( 15-C , 35-H ) :   0.9987 B( 16-C , 17-C ) :   1.2761
B( 16-C , 21-C ) :   1.3356 B( 17-C , 18-C ) :   1.5132 B( 17-C , 36-H ) :   1.0163
B( 18-C , 19-C ) :   1.3106 B( 18-C , 37-H ) :   0.9949 B( 19-C , 20-C ) :   1.5203
B( 19-C , 38-H ) :   1.0003 B( 20-C , 21-C ) :   1.2658 B( 20-C , 39-H ) :   1.0077

FINAL SINGLE POINT ENERGY      -986.942861366174

DIPOLE MOMENT
-------------
                                X             Y             Z
Electronic contribution:     -3.38674      -5.67438       1.56596
Nuclear contribution   :      1.90310       4.86068      -1.23869
                        -----------------------------------------
Total Dipole Moment    :     -1.48364      -0.81370       0.32727
                        -----------------------------------------
Magnitude (a.u.)       :      1.72349
Magnitude (Debye)      :      4.38076

Rotational constants in cm-1:     0.009942     0.007772     0.004795
Rotational constants in MHz :   298.058407   232.987840   143.748459

                             ****ORCA TERMINATED NORMALLY****
TOTAL RUN TIME: 0 days 0 hours 0 minutes 23 seconds 938 msec
