                         Program Version 5.0.3 -  RELEASE  -
|  1> !RHF def2-SVP TightSCF PAL16
|  2> *xyz 0 1
|  3> C 1.2775899916795508 1.8116948247760778 1.8872216963109532
|  4> C 2.366698629919689 1.115774060630249 1.1213951667601303
|  5> C 3.708592609420412 1.3402854085513025 1.4615193315272557
|  6> C 4.739197390672606 0.7135658142940036 0.7547321168691675
|  7> C 4.446250204196517 -0.14974304787639098 -0.3000287469401385
|  8> C 3.119546388998446 -0.3957902138895551 -0.6458331820652411
|  9> C 2.089989966979891 0.22644239808878708 0.0695987644642919
| 10> C 0.6923961024981552 -0.09077522796159802 -0.3253643146463707
| 11> N 0.23870664344733158 0.3551661837943115 -1.457438003598975
| 12> N -0.04682073406327395 -0.8819216606991805 0.5357422097003498
| 13> O -1.3983509463942558 -0.5091036529543153 0.5836474209187968
| 14> C -2.124495072998149 -1.429269797519704 -0.24255415054145607
| 15> C -3.547009001685768 -0.9429796040925509 -0.3718420802973903
| 16> C -4.336982767618343 -1.0788833491308139 0.8265836936438058
| 17> N -4.983777467116128 -1.20357980410392 1.781955516690973
| 18> C -4.256977372931686 -1.113282261928164 -1.7047514974852767
| 19> C -3.81534849856338 0.25290516210211544 -1.2677534623630675
| 20> H 0.8056438633171372 1.118096553470381 2.589599912024834
| 21> H 1.6748770804683428 2.6566089902667107 2.460101532540905
| 22> H 0.519834374118348 2.2161989963306494 1.2085209444508536
| 23> H 3.9642245219236525 2.0144393516243015 2.2771082775103726
| 24> H 5.774970376169014 0.9037021677955247 1.0273586979786333
| 25> H 5.251404920016511 -0.6324297824935519 -0.8484275674595749
| 26> H 2.887327533919589 -1.076172196540309 -1.461889865721519
| 27> H 0.952397541320071 0.9233046277967655 -1.926983199156362
| 28> H 0.3467642552477271 -0.9877891593466633 1.4681887823908475
| 29> H -1.6570153427108993 -1.5075218138433042 -1.2319484790112543
| 30> H -2.101704417465803 -2.4244423067888587 0.21971324068950626
| 31> H -3.721312680373119 -1.5753708001371445 -2.52693497039857
| 32> H -5.321882508891365 -1.3222205051782625 -1.7082392702098073
| 33> H -4.5763689101090135 0.9668338122082819 -0.9714893689651628
| 34> H -2.968366673374519 0.7062568327584322 -1.774440706686096
| 35> *
| 36>
| 37>                          ****END OF INPUT****

CARTESIAN COORDINATES (ANGSTROEM)
---------------------------------
  C      1.277590    1.811695    1.887222
  C      2.366699    1.115774    1.121395
  C      3.708593    1.340285    1.461519
  C      4.739197    0.713566    0.754732
  C      4.446250   -0.149743   -0.300029
  C      3.119546   -0.395790   -0.645833
  C      2.089990    0.226442    0.069599
  C      0.692396   -0.090775   -0.325364
  N      0.238707    0.355166   -1.457438
  N     -0.046821   -0.881922    0.535742
  O     -1.398351   -0.509104    0.583647
  C     -2.124495   -1.429270   -0.242554
  C     -3.547009   -0.942980   -0.371842
  C     -4.336983   -1.078883    0.826584
  N     -4.983777   -1.203580    1.781956
  C     -4.256977   -1.113282   -1.704751
  C     -3.815348    0.252905   -1.267753
  H      0.805644    1.118097    2.589600
  H      1.674877    2.656609    2.460102
  H      0.519834    2.216199    1.208521
  H      3.964225    2.014439    2.277108
  H      5.774970    0.903702    1.027359
  H      5.251405   -0.632430   -0.848428
  H      2.887328   -1.076172   -1.461890
  H      0.952398    0.923305   -1.926983
  H      0.346764   -0.987789    1.468189
  H     -1.657015   -1.507522   -1.231948
  H     -2.101704   -2.424442    0.219713
  H     -3.721313   -1.575371   -2.526935
  H     -5.321883   -1.322221   -1.708239
  H     -4.576369    0.966834   -0.971489
  H     -2.968367    0.706257   -1.774441

 Total Charge           Charge          ....    0
 Multiplicity           Mult            ....    1
 Number of Electrons    NEL             ....  122
 Basis Dimension        Dim             ....  313

ORBITAL ENERGIES
----------------

  NO   OCC          E(Eh)            E(eV)
   0   2.0000     -20.602222      -560.6150
   1   2.0000     -15.635085      -425.4523
   2   2.0000     -15.562052      -423.4650
   3   2.0000     -15.541344      -422.9015
   4   2.0000     -11.328778      -308.2717
   5   2.0000     -11.299182      -307.4664
   6   2.0000     -11.285601      -307.0968
   7   2.0000     -11.271592      -306.7156
   8   2.0000     -11.265505      -306.5500
   9   2.0000     -11.260599      -306.4165
  10   2.0000     -11.259739      -306.3931
  11   2.0000     -11.258548      -306.3607
  12   2.0000     -11.255444      -306.2762
  13   2.0000     -11.253599      -306.2260
  14   2.0000     -11.252280      -306.1901
  15   2.0000     -11.251327      -306.1642
  16   2.0000     -11.243975      -305.9641
  17   2.0000      -1.429330       -38.8940
  18   2.0000      -1.230146       -33.4740
  19   2.0000      -1.203750       -32.7557
  20   2.0000      -1.164524       -31.6883
  21   2.0000      -1.155251       -31.4360
  22   2.0000      -1.114361       -30.3233
  23   2.0000      -1.054413       -28.6920
  24   2.0000      -1.024972       -27.8909
  25   2.0000      -0.961347       -26.1596
  26   2.0000      -0.941713       -25.6253
  27   2.0000      -0.866626       -23.5821
  28   2.0000      -0.854422       -23.2500
  29   2.0000      -0.836178       -22.7536
  30   2.0000      -0.819355       -22.2958
  31   2.0000      -0.801553       -21.8114
  32   2.0000      -0.740213       -20.1422
  33   2.0000      -0.720667       -19.6103
  34   2.0000      -0.697304       -18.9746
  35   2.0000      -0.674685       -18.3591
  36   2.0000      -0.667621       -18.1669
  37   2.0000      -0.661580       -18.0025
  38   2.0000      -0.646280       -17.5862
  39   2.0000      -0.623321       -16.9614
  40   2.0000      -0.615235       -16.7414
  41   2.0000      -0.609196       -16.5771
  42   2.0000      -0.596967       -16.2443
  43   2.0000      -0.588711       -16.0196
  44   2.0000      -0.562562       -15.3081
  45   2.0000      -0.556410       -15.1407
  46   2.0000      -0.537730       -14.6324
  47   2.0000      -0.534750       -14.5513
  48   2.0000      -0.524171       -14.2634
  49   2.0000      -0.518817       -14.1177
  50   2.0000      -0.509954       -13.8766
  51   2.0000      -0.509349       -13.8601
  52   2.0000      -0.499532       -13.5930
  53   2.0000      -0.480239       -13.0680
  54   2.0000      -0.458874       -12.4866
  55   2.0000      -0.434331       -11.8187
  56   2.0000      -0.428221       -11.6525
  57   2.0000      -0.412241       -11.2176
  58   2.0000      -0.381370       -10.3776
  59   2.0000      -0.351278        -9.5588
  60   2.0000      -0.342588        -9.3223
  61   0.0000       0.102509         2.7894
  62   0.0000       0.115139         3.1331
  63   0.0000       0.168063         4.5732
  64   0.0000       0.173596         4.7238
  65   0.0000       0.180835         4.9208

MULLIKEN ATOMIC CHARGES
-----------------------
   0 C :    0.103592
   1 C :   -0.177922
   2 C :   -0.043886
   3 C :   -0.019508
   4 C :   -0.038258
   5 C :    0.006838
   6 C :   -0.153069
   7 C :    0.255847
   8 N :   -0.322093
   9 N :   -0.116862
  10 O :   -0.467073
  11 C :    0.487565
  12 C :   -0.539674
  13 C :    0.076426
  14 N :   -0.121732
  15 C :    0.011029
  16 C :    0.026429
  17 H :    0.048360
  18 H :    0.040903
  19 H :    0.066543
  20 H :    0.037413
  21 H :    0.046915
  22 H :    0.046534
  23 H :    0.047369
  24 H :    0.126103
  25 H :    0.167700
  26 H :    0.045882
  27 H :    0.035360
  28 H :    0.072946
  29 H :    0.077577
  30 H :    0.076312
  31 H :    0.096432
Sum of atomic charges:    0.0000000

LOEWDIN ATOMIC CHARGES
----------------------
   0 C :   -0.021885
   1 C :   -0.021548
   2 C :   -0.027348
   3 C :   -0.011126
   4 C :   -0.030858
   5 C :   -0.005540
   6 C :   -0.074708
   7 C :    0.100269
   8 N :   -0.223689
   9 N :    0.034766
  10 O :   -0.181814
  11 C :    0.153831
  12 C :   -0.106684
  13 C :    0.018586
  14 N :   -0.122683
  15 C :    0.008627
  16 C :    0.015486
  17 H :    0.027344
  18 H :    0.027535
  19 H :    0.034157
  20 H :    0.027531
  21 H :    0.029771
  22 H :    0.029048
  23 H :    0.032805
  24 H :    0.057671
  25 H :    0.072711
  26 H :    0.017499
  27 H :    0.011185
  28 H :    0.028326
  29 H :    0.031874
  30 H :    0.030943
  31 H :    0.037917

  Mayer bond orders larger than 0.100000
B(  0-C ,  1-C ) :   1.0018 B(  0-C , 17-H ) :   0.9698 B(  0-C , 18-H ) :   0.9798
B(  0-C , 19-H ) :   0.9710 B(  1-C ,  2-C ) :   1.4364 B(  1-C ,  6-C ) :   1.4188
B(  2-C ,  3-C ) :   1.4226 B(  2-C , 20-H ) :   1.0011 B(  3-C ,  4-C ) :   1.4123
B(  3-C , 21-H ) :   0.9993 B(  4-C ,  5-C ) :   1.4140 B(  4-C , 22-H ) :   0.9996
B(  5-C ,  6-C ) :   1.4362 B(  5-C , 23-H ) :   1.0034 B(  6-C ,  7-C ) :   0.9693
B(  7-C ,  8-N ) :   1.9647 B(  7-C ,  9-N ) :   1.0712 B(  8-N , 24-H ) :   0.9362
B(  9-N , 10-O ) :   0.9415 B(  9-N , 25-H ) :   0.9448 B( 10-O , 11-C ) :   0.8330
B( 11-C , 12-C ) :   0.9646 B( 11-C , 26-H ) :   0.9673 B( 11-C , 27-H ) :   0.9715
B( 12-C , 13-C ) :   0.9523 B( 12-C , 15-C ) :   0.9545 B( 12-C , 16-C ) :   0.9377
B( 13-C , 14-N ) :   3.0764 B( 15-C , 16-C ) :   0.9706 B( 15-C , 28-H ) :   0.9747
B( 15-C , 29-H ) :   0.9724 B( 16-C , 30-H ) :   0.9754 B( 16-C , 31-H ) :   0.9708

FINAL SINGLE POINT ENERGY      -738.560964523357

DIPOLE MOMENT
-------------
                                X             Y             Z
Electronic contribution:     -1.85378      -3.33114       2.47354
Nuclear contribution   :      3.84107       3.51718      -3.28653
                        -----------------------------------------
Total Dipole Moment    :      1.98728       0.18604      -0.81300
                        -----------------------------------------
Magnitude (a.u.)       :      2.15519
Magnitude (Debye)      :      5.47807

Rotational constants in cm-1:     0.042003     0.006692     0.006256
Rotational constants in MHz :  1259.232260   200.616951   187.562481

                             ****ORCA TERMINATED NORMALLY****
TOTAL RUN TIME: 0 days 0 hours 0 minutes 12 seconds 884 msec
