                         Program Version 5.0.3 -  RELEASE  -
|  1> !RHF def2-SVP TightSCF PAL16
|  2> *xyz 0 1
|  3> C 1.1434707221115 0.8262164841244868 -1.7285554828380705
|  4> C 0.7579301531139867 -0.05981740857129333 -0.5289573912816588
|  5> C 2.0486054016856294 -0.6087908561848314 0.1469269686040498
|  6> N 3.0311522865447142 0.4196920688983378 0.5433738355000765
|  7> C 4.292424024207951 -0.21234005907628184 0.9407964598004702
|  8> C 2.5375836825833535 1.2622597496355434 1.635465327052637
|  9> C -0.24749844817630345 -1.1942372556325287 -0.9438978927266877
| 10> C -0.4607401637469226 -2.2323831596647605 0.17093057173977888
| 11> O 0.2854667250894883 -1.9139975694903895 -2.0729718362026195
| 12> C -1.6262542776619031 -0.6451135480983755 -1.4248638198587322
| 13> C -2.445371814421465 0.13625199627325946 -0.4215804472641562
| 14> C -2.3455718718730587 1.5333089100923025 -0.34983194702978737
| 15> C -3.0994412436044674 2.2539619866338416 0.5795774445727916
| 16> C -3.964564986234521 1.5820787813748083 1.4389058305058031
| 17> Cl -4.891917944331811 2.4687140256026967 2.585149946902041
| 18> C -4.085667175127715 0.19658687779806475 1.373396752866469
| 19> C -3.330944054140871 -0.522981830435113 0.44388659929382074
| 20> H 1.7465973587301746 1.6828688794426805 -1.4103309248482119
| 21> H 1.7257924988877147 0.26529286479354025 -2.4672167213015843
| 22> H 0.2667922330796702 1.238253153771553 -2.2334884259106267
| 23> H 0.2509667412138427 0.5696787376625135 0.21017683075558324
| 24> H 2.5320439151305023 -1.2914325739222583 -0.5632348220134652
| 25> H 1.787521043369437 -1.2030570374266243 1.030574571714587
| 26> H 4.1682306234399205 -0.8746407467557527 1.8052655859328506
| 27> H 4.708127941839655 -0.7978487595078686 0.11313740104669713
| 28> H 5.042316003643349 0.5464881276034795 1.1911335906667098
| 29> H 1.6636250233702825 1.843482190481138 1.326190659109451
| 30> H 3.2976235141490218 1.99620758921666 1.9275011371847053
| 31> H 2.2707016598088425 0.675560914124523 2.521818000374585
| 32> H 0.4350865978683443 -2.842506581439624 0.3306333652902622
| 33> H -1.2465542283066453 -2.944927373146985 -0.10638537756226618
| 34> H -0.735903349408092 -1.762783156191683 1.120101610482704
| 35> H 1.1193771816845945 -2.3379432362576122 -1.810973745889169
| 36> H -2.2359942634653835 -1.4879079780264073 -1.7837896373044304
| 37> H -1.4964986694373998 -0.04067346757095119 -2.331950925124862
| 38> H -1.6802319734888609 2.073659261551752 -1.019791151780196
| 39> H -3.008534505857896 3.3358426727422867 0.624023278196474
| 40> H -4.766206724860398 -0.3287587597719764 2.0378497327784286
| 41> H -3.443539637408275 -1.604263914652091 0.3971122339143901
| 42> *
| 43>
| 44>                          ****END OF INPUT****

CARTESIAN COORDINATES (ANGSTROEM)
---------------------------------
  C      1.143471    0.826216   -1.728555
  C      0.757930   -0.059817   -0.528957
  C      2.048605   -0.608791    0.146927
  N      3.031152    0.419692    0.543374
  C      4.292424   -0.212340    0.940796
  C      2.537584    1.262260    1.635465
  C     -0.247498   -1.194237   -0.943898
  C     -0.460740   -2.232383    0.170931
  O      0.285467   -1.913998   -2.072972
  C     -1.626254   -0.645114   -1.424864
  C     -2.445372    0.136252   -0.421580
  C     -2.345572    1.533309   -0.349832
  C     -3.099441    2.253962    0.579577
  C     -3.964565    1.582079    1.438906
  Cl    -4.891918    2.468714    2.585150
  C     -4.085667    0.196587    1.373397
  C     -3.330944   -0.522982    0.443887
  H      1.746597    1.682869   -1.410331
  H      1.725792    0.265293   -2.467217
  H      0.266792    1.238253   -2.233488
  H      0.250967    0.569679    0.210177
  H      2.532044   -1.291433   -0.563235
  H      1.787521   -1.203057    1.030575
  H      4.168231   -0.874641    1.805266
  H      4.708128   -0.797849    0.113137
  H      5.042316    0.546488    1.191134
  H      1.663625    1.843482    1.326191
  H      3.297624    1.996208    1.927501
  H      2.270702    0.675561    2.521818
  H      0.435087   -2.842507    0.330633
  H     -1.246554   -2.944927   -0.106385
  H     -0.735903   -1.762783    1.120102
  H      1.119377   -2.337943   -1.810974
  H     -2.235994   -1.487908   -1.783790
  H     -1.496499   -0.040673   -2.331951
  H     -1.680232    2.073659   -1.019791
  H     -3.008535    3.335843    0.624023
  H     -4.766207   -0.328759    2.037850
  H     -3.443540   -1.604264    0.397112

 Total Charge           Charge          ....    0
 Multiplicity           Mult            ....    1
 Number of Electrons    NEL             ....  138
 Basis Dimension        Dim             ....  352

ORBITAL ENERGIES
----------------

  NO   OCC          E(Eh)            E(eV)
   0   2.0000    -104.792728     -2851.5551
   1   2.0000     -20.546304      -559.0934
   2   2.0000     -15.549305      -423.1181
   3   2.0000     -11.298811      -307.4563
   4   2.0000     -11.297255      -307.4139
   5   2.0000     -11.258797      -306.3674
   6   2.0000     -11.253576      -306.2254
   7   2.0000     -11.253425      -306.2213
   8   2.0000     -11.253260      -306.2168
   9   2.0000     -11.252936      -306.2080
  10   2.0000     -11.251742      -306.1755
  11   2.0000     -11.250331      -306.1371
  12   2.0000     -11.250074      -306.1301
  13   2.0000     -11.235647      -305.7375
  14   2.0000     -11.233376      -305.6757
  15   2.0000     -11.226991      -305.5019
  16   2.0000     -11.212321      -305.1028
  17   2.0000     -10.556648      -287.2610
  18   2.0000      -8.031793      -218.5562
  19   2.0000      -8.028187      -218.4581
  20   2.0000      -8.028123      -218.4563
  21   2.0000      -1.338237       -36.4153
  22   2.0000      -1.212854       -33.0034
  23   2.0000      -1.184769       -32.2392
  24   2.0000      -1.123064       -30.5601
  25   2.0000      -1.070797       -29.1379
  26   2.0000      -1.024059       -27.8661
  27   2.0000      -1.019385       -27.7389
  28   2.0000      -0.981322       -26.7031
  29   2.0000      -0.943623       -25.6773
  30   2.0000      -0.934387       -25.4260
  31   2.0000      -0.912598       -24.8330
  32   2.0000      -0.851282       -23.1646
  33   2.0000      -0.841010       -22.8851
  34   2.0000      -0.813378       -22.1331
  35   2.0000      -0.787255       -21.4223
  36   2.0000      -0.749916       -20.4062
  37   2.0000      -0.685964       -18.6660
  38   2.0000      -0.671428       -18.2705
  39   2.0000      -0.665994       -18.1226
  40   2.0000      -0.658569       -17.9206
  41   2.0000      -0.643968       -17.5232
  42   2.0000      -0.637296       -17.3417
  43   2.0000      -0.629870       -17.1396
  44   2.0000      -0.611722       -16.6458
  45   2.0000      -0.604488       -16.4490
  46   2.0000      -0.600368       -16.3368
  47   2.0000      -0.591683       -16.1005
  48   2.0000      -0.567519       -15.4430
  49   2.0000      -0.562368       -15.3028
  50   2.0000      -0.549646       -14.9566
  51   2.0000      -0.544948       -14.8288
  52   2.0000      -0.538610       -14.6563
  53   2.0000      -0.530521       -14.4362
  54   2.0000      -0.524988       -14.2856
  55   2.0000      -0.518935       -14.1210
  56   2.0000      -0.513779       -13.9806
  57   2.0000      -0.509189       -13.8557
  58   2.0000      -0.498647       -13.5689
  59   2.0000      -0.495302       -13.4779
  60   2.0000      -0.488091       -13.2816
  61   2.0000      -0.473971       -12.8974
  62   2.0000      -0.463034       -12.5998
  63   2.0000      -0.450255       -12.2521
  64   2.0000      -0.445146       -12.1130
  65   2.0000      -0.428410       -11.6576
  66   2.0000      -0.359965        -9.7951
  67   2.0000      -0.351678        -9.5697
  68   2.0000      -0.326899        -8.8954
  69   0.0000       0.115422         3.1408
  70   0.0000       0.118484         3.2241
  71   0.0000       0.160240         4.3603
  72   0.0000       0.177608         4.8329
  73   0.0000       0.185731         5.0540

MULLIKEN ATOMIC CHARGES
-----------------------
   0 C :    0.058564
   1 C :   -0.184601
   2 C :    0.209757
   3 N :   -0.627033
   4 C :    0.154260
   5 C :    0.148655
   6 C :   -0.023400
   7 C :    0.057910
   8 O :   -0.459586
   9 C :    0.160309
  10 C :   -0.172797
  11 C :   -0.025961
  12 C :   -0.007198
  13 C :    0.030606
  14 Cl:   -0.140469
  15 C :   -0.004881
  16 C :   -0.018940
  17 H :    0.042242
  18 H :    0.027576
  19 H :    0.015708
  20 H :    0.047040
  21 H :   -0.001637
  22 H :    0.014365
  23 H :   -0.000113
  24 H :    0.030615
  25 H :    0.033938
  26 H :    0.037943
  27 H :    0.032937
  28 H :    0.002717
  29 H :    0.022387
  30 H :    0.033547
  31 H :    0.041215
  32 H :    0.195421
  33 H :    0.044607
  34 H :    0.047141
  35 H :    0.044899
  36 H :    0.045497
  37 H :    0.045564
  38 H :    0.041194
Sum of atomic charges:    0.0000000

LOEWDIN ATOMIC CHARGES
----------------------
   0 C :   -0.023392
   1 C :   -0.040086
   2 C :    0.066612
   3 N :   -0.200977
   4 C :    0.056550
   5 C :    0.055087
   6 C :    0.087463
   7 C :   -0.036698
   8 O :   -0.189989
   9 C :   -0.000265
  10 C :   -0.028980
  11 C :   -0.017286
  12 C :   -0.035557
  13 C :   -0.120583
  14 Cl:    0.091054
  15 C :   -0.035443
  16 C :   -0.016466
  17 H :    0.019401
  18 H :    0.017601
  19 H :    0.007048
  20 H :    0.012433
  21 H :    0.000827
  22 H :   -0.007126
  23 H :   -0.008614
  24 H :    0.011787
  25 H :    0.013739
  26 H :    0.011797
  27 H :    0.014814
  28 H :   -0.007211
  29 H :    0.012679
  30 H :    0.018439
  31 H :    0.019247
  32 H :    0.075095
  33 H :    0.028046
  34 H :    0.026622
  35 H :    0.029483
  36 H :    0.032173
  37 H :    0.032096
  38 H :    0.028580

  Mayer bond orders larger than 0.100000
B(  0-C ,  1-C ) :   1.0104 B(  0-C , 17-H ) :   0.9837 B(  0-C , 18-H ) :   0.9768
B(  0-C , 19-H ) :   0.9879 B(  1-C ,  2-C ) :   1.0112 B(  1-C ,  6-C ) :   0.9546
B(  1-C , 20-H ) :   0.9465 B(  2-C ,  3-N ) :   0.9558 B(  2-C , 21-H ) :   0.9675
B(  2-C , 22-H ) :   0.9720 B(  3-N ,  4-C ) :   0.9504 B(  3-N ,  5-C ) :   0.9381
B(  4-C , 23-H ) :   0.9757 B(  4-C , 24-H ) :   0.9911 B(  4-C , 25-H ) :   0.9921
B(  5-C , 26-H ) :   0.9906 B(  5-C , 27-H ) :   0.9912 B(  5-C , 28-H ) :   0.9756
B(  6-C ,  7-C ) :   1.0209 B(  6-C ,  8-O ) :   0.8745 B(  6-C ,  9-C ) :   1.0259
B(  7-C , 29-H ) :   0.9728 B(  7-C , 30-H ) :   0.9807 B(  7-C , 31-H ) :   0.9738
B(  8-O , 32-H ) :   0.9694 B(  9-C , 10-C ) :   0.9693 B(  9-C , 33-H ) :   0.9690
B(  9-C , 34-H ) :   0.9731 B( 10-C , 11-C ) :   1.4141 B( 10-C , 16-C ) :   1.4138
B( 11-C , 12-C ) :   1.4291 B( 11-C , 35-H ) :   1.0010 B( 12-C , 13-C ) :   1.4063
B( 12-C , 36-H ) :   1.0026 B( 13-C , 14-Cl) :   0.9461 B( 13-C , 15-C ) :   1.4059
B( 15-C , 16-C ) :   1.4279 B( 15-C , 37-H ) :   1.0022 B( 16-C , 38-H ) :   0.9998

FINAL SINGLE POINT ENERGY     -1131.108372040027

DIPOLE MOMENT
-------------
                                X             Y             Z
Electronic contribution:    -35.92378      12.50404       9.30319
Nuclear contribution   :     36.64460     -13.01644      -8.91471
                        -----------------------------------------
Total Dipole Moment    :      0.72081      -0.51240       0.38848
                        -----------------------------------------
Magnitude (a.u.)       :      0.96594
Magnitude (Debye)      :      2.45522

Rotational constants in cm-1:     0.021020     0.006640     0.005722
Rotational constants in MHz :   630.161463   199.068279   171.534304

                             ****ORCA TERMINATED NORMALLY****
TOTAL RUN TIME: 0 days 0 hours 0 minutes 18 seconds 601 msec
