                         Program Version 5.0.3 -  RELEASE  -
|  1> !RHF def2-SVP TightSCF PAL16
|  2> *xyz 0 1
|  3> O -0.44977874865912953 1.7744617216630074 -2.5075664247519627
|  4> C -0.08300640719668574 0.833372750649095 -1.8167141353669984
|  5> N 1.1894580682852722 0.6458378973855615 -1.353048532894883
|  6> C 1.164174403380844 -0.4673168210642809 -0.7150551775252992
|  7> N 2.155781277576279 -1.1204485364272596 -0.05485118410265064
|  8> C 3.5392793990136284 -0.7133729552756548 -0.2590003073790431
|  9> C 4.578723267245909 -1.000586805938062 0.7882366087061157
| 10> C 4.139491576771995 0.41175408012759557 0.5349287665331842
| 11> O -0.012197557160202722 -1.1396777417535333 -0.6711062721325245
| 12> C -0.9590010993765014 -0.32325021521706027 -1.377154442218107
| 13> C -2.1417163992983794 0.0732691035404002 -0.5199370688009528
| 14> C -2.238895339453282 -0.2845251324282213 0.834146542823738
| 15> C -3.3495528664464627 0.09041825010424434 1.5939867738570144
| 16> C -4.379111650922276 0.8259207847851745 1.0124266077868438
| 17> C -4.3003392823799125 1.1875064720232098 -0.32963673875103516
| 18> C -3.1915591170099593 0.8127893493986672 -1.0908788278487824
| 19> H 1.9500685639744224 -2.0859588273452934 0.17288506771326717
| 20> H 3.85491734626383 -0.8075521941041798 -1.2958977141209556
| 21> H 4.267792341078405 -1.4631545066040212 1.7172395775875133
| 22> H 5.568438494420897 -1.2897589595078387 0.4547684951820827
| 23> H 3.5195347218741224 0.8985608640966799 1.2786914412259658
| 24> H 4.820954662427134 1.079674551361306 0.02126381411556565
| 25> H -1.2919661017226765 -0.8882171660475113 -2.254699064792168
| 26> H -1.4514174624020981 -0.8591122122458604 1.3172304598865254
| 27> H -3.409605250190087 -0.19117128711522982 2.642287442883504
| 28> H -5.241125183940394 1.119746931009594 1.6055214270150875
| 29> H -5.100232277358046 1.7661514137307357 -0.7848777134385044
| 30> H -3.149109378797153 1.1146391911986158 -2.1369472608740203
| 31> *
| 32>
| 33>                          ****END OF INPUT****

CARTESIAN COORDINATES (ANGSTROEM)
---------------------------------
  O     -0.449779    1.774462   -2.507566
  C     -0.083006    0.833373   -1.816714
  N      1.189458    0.645838   -1.353049
  C      1.164174   -0.467317   -0.715055
  N      2.155781   -1.120449   -0.054851
  C      3.539279   -0.713373   -0.259000
  C      4.578723   -1.000587    0.788237
  C      4.139492    0.411754    0.534929
  O     -0.012198   -1.139678   -0.671106
  C     -0.959001   -0.323250   -1.377154
  C     -2.141716    0.073269   -0.519937
  C     -2.238895   -0.284525    0.834147
  C     -3.349553    0.090418    1.593987
  C     -4.379112    0.825921    1.012427
  C     -4.300339    1.187506   -0.329637
  C     -3.191559    0.812789   -1.090879
  H      1.950069   -2.085959    0.172885
  H      3.854917   -0.807552   -1.295898
  H      4.267792   -1.463155    1.717240
  H      5.568438   -1.289759    0.454768
  H      3.519535    0.898561    1.278691
  H      4.820955    1.079675    0.021264
  H     -1.291966   -0.888217   -2.254699
  H     -1.451417   -0.859112    1.317230
  H     -3.409605   -0.191171    2.642287
  H     -5.241125    1.119747    1.605521
  H     -5.100232    1.766151   -0.784878
  H     -3.149109    1.114639   -2.136947

 Total Charge           Charge          ....    0
 Multiplicity           Mult            ....    1
 Number of Electrons    NEL             ....  114
 Basis Dimension        Dim             ....  284

ORBITAL ENERGIES
----------------

  NO   OCC          E(Eh)            E(eV)
   0   2.0000     -20.623815      -561.2025
   1   2.0000     -20.520877      -558.4014
   2   2.0000     -15.619263      -425.0218
   3   2.0000     -15.547946      -423.0811
   4   2.0000     -11.411769      -310.5300
   5   2.0000     -11.351381      -308.8868
   6   2.0000     -11.322599      -308.1036
   7   2.0000     -11.293708      -307.3174
   8   2.0000     -11.260325      -306.4090
   9   2.0000     -11.253229      -306.2159
  10   2.0000     -11.247391      -306.0571
  11   2.0000     -11.246623      -306.0362
  12   2.0000     -11.244939      -305.9904
  13   2.0000     -11.243607      -305.9541
  14   2.0000     -11.242660      -305.9283
  15   2.0000     -11.241631      -305.9003
  16   2.0000      -1.480585       -40.2888
  17   2.0000      -1.355256       -36.8784
  18   2.0000      -1.276031       -34.7226
  19   2.0000      -1.223559       -33.2947
  20   2.0000      -1.152816       -31.3697
  21   2.0000      -1.139156       -30.9980
  22   2.0000      -1.053701       -28.6727
  23   2.0000      -1.008650       -27.4468
  24   2.0000      -0.969833       -26.3905
  25   2.0000      -0.870735       -23.6939
  26   2.0000      -0.852016       -23.1845
  27   2.0000      -0.830826       -22.6079
  28   2.0000      -0.827185       -22.5089
  29   2.0000      -0.806567       -21.9478
  30   2.0000      -0.789905       -21.4944
  31   2.0000      -0.739157       -20.1135
  32   2.0000      -0.727986       -19.8095
  33   2.0000      -0.713427       -19.4133
  34   2.0000      -0.689844       -18.7716
  35   2.0000      -0.676096       -18.3975
  36   2.0000      -0.649989       -17.6871
  37   2.0000      -0.641326       -17.4514
  38   2.0000      -0.628912       -17.1136
  39   2.0000      -0.615588       -16.7510
  40   2.0000      -0.594927       -16.1888
  41   2.0000      -0.591155       -16.0861
  42   2.0000      -0.585782       -15.9399
  43   2.0000      -0.570271       -15.5179
  44   2.0000      -0.544470       -14.8158
  45   2.0000      -0.532768       -14.4974
  46   2.0000      -0.514235       -13.9931
  47   2.0000      -0.506949       -13.7948
  48   2.0000      -0.501235       -13.6393
  49   2.0000      -0.485333       -13.2066
  50   2.0000      -0.472675       -12.8621
  51   2.0000      -0.452203       -12.3051
  52   2.0000      -0.432545       -11.7701
  53   2.0000      -0.422550       -11.4982
  54   2.0000      -0.386275       -10.5111
  55   2.0000      -0.341975        -9.3056
  56   2.0000      -0.337708        -9.1895
  57   0.0000       0.113939         3.1004
  58   0.0000       0.127723         3.4755
  59   0.0000       0.137268         3.7353
  60   0.0000       0.172498         4.6939
  61   0.0000       0.184596         5.0231

MULLIKEN ATOMIC CHARGES
-----------------------
   0 O :   -0.393643
   1 C :    0.384294
   2 N :   -0.417834
   3 C :    0.594404
   4 N :   -0.406309
   5 C :    0.028564
   6 C :   -0.075440
   7 C :   -0.038869
   8 O :   -0.540287
   9 C :    0.295532
  10 C :   -0.187835
  11 C :   -0.008367
  12 C :   -0.035571
  13 C :   -0.030980
  14 C :   -0.038371
  15 C :    0.002394
  16 H :    0.184584
  17 H :    0.072156
  18 H :    0.066548
  19 H :    0.069866
  20 H :    0.073332
  21 H :    0.074142
  22 H :    0.091991
  23 H :    0.044840
  24 H :    0.041932
  25 H :    0.043477
  26 H :    0.046650
  27 H :    0.058799
Sum of atomic charges:    0.0000000

LOEWDIN ATOMIC CHARGES
----------------------
   0 O :   -0.270891
   1 C :    0.149271
   2 N :   -0.251413
   3 C :    0.228208
   4 N :   -0.061501
   5 C :    0.044854
   6 C :   -0.029985
   7 C :   -0.012987
   8 O :   -0.179572
   9 C :    0.106386
  10 C :   -0.046632
  11 C :   -0.019808
  12 C :   -0.024983
  13 C :   -0.020982
  14 C :   -0.020386
  15 C :   -0.005046
  16 H :    0.093898
  17 H :    0.020535
  18 H :    0.024776
  19 H :    0.026770
  20 H :    0.030033
  21 H :    0.029173
  22 H :    0.043522
  23 H :    0.026742
  24 H :    0.027798
  25 H :    0.027461
  26 H :    0.029965
  27 H :    0.034795

  Mayer bond orders larger than 0.100000
B(  0-O ,  1-C ) :   2.0266 B(  1-C ,  2-N ) :   1.1632 B(  1-C ,  9-C ) :   0.9469
B(  2-N ,  3-C ) :   1.6266 B(  3-C ,  4-N ) :   1.2277 B(  3-C ,  8-O ) :   1.0626
B(  4-N ,  5-C ) :   0.8817 B(  4-N , 16-H ) :   0.9213 B(  5-C ,  6-C ) :   0.9768
B(  5-C ,  7-C ) :   0.9688 B(  5-C , 17-H ) :   0.9696 B(  6-C ,  7-C ) :   0.9661
B(  6-C , 18-H ) :   0.9736 B(  6-C , 19-H ) :   0.9743 B(  7-C , 20-H ) :   0.9730
B(  7-C , 21-H ) :   0.9772 B(  8-O ,  9-C ) :   0.8185 B(  9-C , 10-C ) :   0.9915
B(  9-C , 22-H ) :   0.9396 B( 10-C , 11-C ) :   1.4384 B( 10-C , 15-C ) :   1.4031
B( 11-C , 12-C ) :   1.4174 B( 11-C , 23-H ) :   0.9992 B( 12-C , 13-C ) :   1.4211
B( 12-C , 24-H ) :   0.9999 B( 13-C , 14-C ) :   1.4046 B( 13-C , 25-H ) :   0.9992
B( 14-C , 15-C ) :   1.4385 B( 14-C , 26-H ) :   1.0000 B( 15-C , 27-H ) :   0.9981

FINAL SINGLE POINT ENERGY      -719.474945696839

DIPOLE MOMENT
-------------
                                X             Y             Z
Electronic contribution:     -5.79847       0.67032      -5.77031
Nuclear contribution   :      6.32314      -2.50626       6.90082
                        -----------------------------------------
Total Dipole Moment    :      0.52467      -1.83594       1.13051
                        -----------------------------------------
Magnitude (a.u.)       :      2.21901
Magnitude (Debye)      :      5.64028

Rotational constants in cm-1:     0.040733     0.009064     0.008074
Rotational constants in MHz :  1221.158889   271.742555   242.046057

                             ****ORCA TERMINATED NORMALLY****
TOTAL RUN TIME: 0 days 0 hours 0 minutes 10 seconds 112 msec
