                         Program Version 5.0.3 -  RELEASE  -
|  1> !RHF def2-SVP TightSCF PAL16
|  2> *xyz 0 1
|  3> C 5.479397294431214 0.5172564990437478 -1.2923958622331098
|  4> N 4.800425187092628 0.42495350172011476 0.0012707966618238937
|  5> C 5.530530240283959 1.2129264359679768 0.9946313516974754
|  6> C 3.4045015652099675 0.885757286691927 -0.07871353944517046
|  7> C 2.48594239442595 -0.027457486794022868 -0.9062932173251195
|  8> O 1.137300984885864 0.44774608198134896 -0.757181081791844
|  9> C 0.16517970076765584 -0.4492883413009656 -1.086739507471354
| 10> O 0.38024763844237913 -1.5480357084442307 -1.585312296916051
| 11> C -1.2270363900701597 0.11606487202200835 -0.7938519179526193
| 12> C -1.3208970927055963 0.701902869106949 0.6162361060152287
| 13> C -0.8661478732704968 -0.003981028085028529 1.740118990642187
| 14> C -0.9748481086325498 0.5432653017363147 3.0200086001523867
| 15> C -1.5280153093393953 1.8079104512629343 3.1939548407022436
| 16> C -1.9680910527457305 2.530215946459808 2.088303203902462
| 17> C -1.8631946229241039 1.9838418233645667 0.8075553474982526
| 18> C -2.342583322193666 -0.915111755414101 -1.1614478443737806
| 19> O -2.190698453727213 -1.2687306151121924 -2.557496896912583
| 20> C -2.381895524515411 -2.2207464383742934 -0.3481988286676554
| 21> C -3.787984994679367 -2.7530485831999045 -0.6002534926000567
| 22> C -4.65020710020301 -1.5053977423851117 -0.5129415557656581
| 23> C -3.7857816726449682 -0.360229759956618 -1.0457100920499793
| 24> H 5.013348947390902 -0.13958406941385312 -2.03157188240015
| 25> H 5.483415525843314 1.5394380909327006 -1.6860763893567436
| 26> H 6.517269171121787 0.18238906334739052 -1.2079538807403767
| 27> H 6.5556814412698925 0.8451057084654937 1.0971892982021012
| 28> H 5.0645506584094235 1.1211898886300027 1.979302355324086
| 29> H 5.572554912247955 2.273464206992709 0.7280746018947266
| 30> H 3.346854294619718 1.9097792487078595 -0.4688305327238906
| 31> H 2.982066794820746 0.9330262217076605 0.9335187831970247
| 32> H 2.7460171798238697 0.013096321861097476 -1.9680657433644435
| 33> H 2.5678747511498954 -1.0618399533653566 -0.5449273822676649
| 34> H -1.32134076473804 0.9423915343697571 -1.5180534326167296
| 35> H -0.41732444527881757 -0.9914973706449589 1.636672794296339
| 36> H -0.6252161794206584 -0.016840295746712558 3.878431702541585
| 37> H -1.6137381971791125 2.2298525670738547 4.190093403024117
| 38> H -2.3987738827197638 3.521987114313571 2.223050436003056
| 39> H -2.2164538729351375 2.563066417548217 -0.03964918801561604
| 40> H -1.3750443856333134 -1.8076535091420682 -2.6301002807411926
| 41> H -2.2702261404114874 -2.051061553580266 0.7254173502868826
| 42> H -1.633927356502093 -2.954946599935859 -0.66352101230918
| 43> H -4.073455507563792 -3.50755577885039 0.1357921665930405
| 44> H -3.8618233282808347 -3.202087307097424 -1.5970581579396872
| 45> H -4.902580478659325 -1.3074319358952302 0.5322397927839915
| 46> H -5.592000016286378 -1.6078866498231594 -1.0608497143487507
| 47> H -4.168815297493275 -0.029154801833759368 -2.018834288463716
| 48> H -3.875057311482752 0.48293983108703387 -0.35983390262521164
| 49> *
| 50>
| 51>                          ****END OF INPUT****

CARTESIAN COORDINATES (ANGSTROEM)
---------------------------------
  C      5.479397    0.517256   -1.292396
  N      4.800425    0.424954    0.001271
  C      5.530530    1.212926    0.994631
  C      3.404502    0.885757   -0.078714
  C      2.485942   -0.027457   -0.906293
  O      1.137301    0.447746   -0.757181
  C      0.165180   -0.449288   -1.086740
  O      0.380248   -1.548036   -1.585312
  C     -1.227036    0.116065   -0.793852
  C     -1.320897    0.701903    0.616236
  C     -0.866148   -0.003981    1.740119
  C     -0.974848    0.543265    3.020009
  C     -1.528015    1.807910    3.193955
  C     -1.968091    2.530216    2.088303
  C     -1.863195    1.983842    0.807555
  C     -2.342583   -0.915112   -1.161448
  O     -2.190698   -1.268731   -2.557497
  C     -2.381896   -2.220746   -0.348199
  C     -3.787985   -2.753049   -0.600253
  C     -4.650207   -1.505398   -0.512942
  C     -3.785782   -0.360230   -1.045710
  H      5.013349   -0.139584   -2.031572
  H      5.483416    1.539438   -1.686076
  H      6.517269    0.182389   -1.207954
  H      6.555681    0.845106    1.097189
  H      5.064551    1.121190    1.979302
  H      5.572555    2.273464    0.728075
  H      3.346854    1.909779   -0.468831
  H      2.982067    0.933026    0.933519
  H      2.746017    0.013096   -1.968066
  H      2.567875   -1.061840   -0.544927
  H     -1.321341    0.942392   -1.518053
  H     -0.417324   -0.991497    1.636673
  H     -0.625216   -0.016840    3.878432
  H     -1.613738    2.229853    4.190093
  H     -2.398774    3.521987    2.223050
  H     -2.216454    2.563066   -0.039649
  H     -1.375044   -1.807654   -2.630100
  H     -2.270226   -2.051062    0.725417
  H     -1.633927   -2.954947   -0.663521
  H     -4.073456   -3.507556    0.135792
  H     -3.861823   -3.202087   -1.597058
  H     -4.902580   -1.307432    0.532240
  H     -5.592000   -1.607887   -1.060850
  H     -4.168815   -0.029155   -2.018834
  H     -3.875057    0.482940   -0.359834

 Total Charge           Charge          ....    0
 Multiplicity           Mult            ....    1
 Number of Electrons    NEL             ....  158
 Basis Dimension        Dim             ....  419

ORBITAL ENERGIES
----------------

  NO   OCC          E(Eh)            E(eV)
   0   2.0000     -20.605752      -560.7110
   1   2.0000     -20.556990      -559.3841
   2   2.0000     -20.530280      -558.6573
   3   2.0000     -15.554141      -423.2497
   4   2.0000     -11.401488      -310.2502
   5   2.0000     -11.295427      -307.3642
   6   2.0000     -11.288650      -307.1798
   7   2.0000     -11.262154      -306.4588
   8   2.0000     -11.260743      -306.4204
   9   2.0000     -11.258691      -306.3646
  10   2.0000     -11.254851      -306.2601
  11   2.0000     -11.253846      -306.2327
  12   2.0000     -11.247741      -306.0666
  13   2.0000     -11.246918      -306.0442
  14   2.0000     -11.245888      -306.0162
  15   2.0000     -11.245599      -306.0083
  16   2.0000     -11.243402      -305.9485
  17   2.0000     -11.213185      -305.1263
  18   2.0000     -11.212080      -305.0962
  19   2.0000     -11.209462      -305.0250
  20   2.0000     -11.208218      -304.9911
  21   2.0000      -1.447046       -39.3761
  22   2.0000      -1.352591       -36.8059
  23   2.0000      -1.319107       -35.8947
  24   2.0000      -1.218250       -33.1503
  25   2.0000      -1.155793       -31.4507
  26   2.0000      -1.105330       -30.0775
  27   2.0000      -1.067443       -29.0466
  28   2.0000      -1.016770       -27.6677
  29   2.0000      -1.011953       -27.5366
  30   2.0000      -0.976432       -26.5701
  31   2.0000      -0.956066       -26.0159
  32   2.0000      -0.946851       -25.7651
  33   2.0000      -0.919555       -25.0224
  34   2.0000      -0.880329       -23.9550
  35   2.0000      -0.831500       -22.6263
  36   2.0000      -0.817010       -22.2320
  37   2.0000      -0.797951       -21.7133
  38   2.0000      -0.781660       -21.2701
  39   2.0000      -0.774434       -21.0734
  40   2.0000      -0.746016       -20.3001
  41   2.0000      -0.715901       -19.4806
  42   2.0000      -0.696782       -18.9604
  43   2.0000      -0.687398       -18.7050
  44   2.0000      -0.683226       -18.5915
  45   2.0000      -0.661230       -17.9930
  46   2.0000      -0.650417       -17.6987
  47   2.0000      -0.648385       -17.6434
  48   2.0000      -0.640173       -17.4200
  49   2.0000      -0.636787       -17.3279
  50   2.0000      -0.629288       -17.1238
  51   2.0000      -0.624953       -17.0058
  52   2.0000      -0.611176       -16.6309
  53   2.0000      -0.599082       -16.3018
  54   2.0000      -0.592667       -16.1273
  55   2.0000      -0.577441       -15.7130
  56   2.0000      -0.569451       -15.4955
  57   2.0000      -0.555920       -15.1273
  58   2.0000      -0.547626       -14.9017
  59   2.0000      -0.538018       -14.6402
  60   2.0000      -0.522751       -14.2248
  61   2.0000      -0.521950       -14.2030
  62   2.0000      -0.519662       -14.1407
  63   2.0000      -0.508878       -13.8473
  64   2.0000      -0.507811       -13.8182
  65   2.0000      -0.503517       -13.7014
  66   2.0000      -0.499751       -13.5989
  67   2.0000      -0.496737       -13.5169
  68   2.0000      -0.493455       -13.4276
  69   2.0000      -0.471680       -12.8351
  70   2.0000      -0.470649       -12.8070
  71   2.0000      -0.467635       -12.7250
  72   2.0000      -0.458289       -12.4707
  73   2.0000      -0.449835       -12.2406
  74   2.0000      -0.437292       -11.8993
  75   2.0000      -0.429094       -11.6762
  76   2.0000      -0.367049        -9.9879
  77   2.0000      -0.344730        -9.3806
  78   2.0000      -0.337716        -9.1897
  79   0.0000       0.119547         3.2530
  80   0.0000       0.121549         3.3075
  81   0.0000       0.154203         4.1961
  82   0.0000       0.168686         4.5902
  83   0.0000       0.183347         4.9891

MULLIKEN ATOMIC CHARGES
-----------------------
   0 C :    0.143946
   1 N :   -0.633944
   2 C :    0.155054
   3 C :    0.123400
   4 C :    0.296465
   5 O :   -0.555830
   6 C :    0.560394
   7 O :   -0.445208
   8 C :    0.025601
   9 C :   -0.107243
  10 C :   -0.029766
  11 C :   -0.032151
  12 C :   -0.035269
  13 C :   -0.037194
  14 C :   -0.020418
  15 C :   -0.074619
  16 O :   -0.485113
  17 C :    0.020620
  18 C :    0.001304
  19 C :   -0.084993
  20 C :    0.113675
  21 H :    0.036105
  22 H :    0.005033
  23 H :    0.035020
  24 H :    0.033884
  25 H :    0.033451
  26 H :    0.003475
  27 H :    0.014418
  28 H :    0.040935
  29 H :    0.037817
  30 H :    0.060736
  31 H :    0.078222
  32 H :    0.046645
  33 H :    0.040236
  34 H :    0.042059
  35 H :    0.043917
  36 H :    0.036439
  37 H :    0.223077
  38 H :    0.034812
  39 H :    0.048705
  40 H :    0.026576
  41 H :    0.039163
  42 H :    0.024940
  43 H :    0.031935
  44 H :    0.047561
  45 H :    0.036129
Sum of atomic charges:   -0.0000000

LOEWDIN ATOMIC CHARGES
----------------------
   0 C :    0.053850
   1 N :   -0.205634
   2 C :    0.058057
   3 C :    0.055700
   4 C :    0.140814
   5 O :   -0.186720
   6 C :    0.246311
   7 O :   -0.276704
   8 C :   -0.038262
   9 C :   -0.020049
  10 C :   -0.023406
  11 C :   -0.021226
  12 C :   -0.026240
  13 C :   -0.021981
  14 C :   -0.017909
  15 C :    0.089351
  16 O :   -0.204615
  17 C :   -0.026585
  18 C :   -0.017202
  19 C :   -0.017291
  20 C :   -0.012613
  21 H :    0.011503
  22 H :   -0.006106
  23 H :    0.015548
  24 H :    0.013767
  25 H :    0.013506
  26 H :   -0.006523
  27 H :   -0.003735
  28 H :    0.018595
  29 H :    0.010708
  30 H :    0.020821
  31 H :    0.048814
  32 H :    0.025373
  33 H :    0.027374
  34 H :    0.026958
  35 H :    0.028723
  36 H :    0.025584
  37 H :    0.078443
  38 H :    0.013438
  39 H :    0.018591
  40 H :    0.010717
  41 H :    0.016015
  42 H :    0.011025
  43 H :    0.013988
  44 H :    0.024978
  45 H :    0.014250

  Mayer bond orders larger than 0.100000
B(  0-C ,  1-N ) :   0.9358 B(  0-C , 21-H ) :   0.9926 B(  0-C , 22-H ) :   0.9754
B(  0-C , 23-H ) :   0.9915 B(  1-N ,  2-C ) :   0.9452 B(  1-N ,  3-C ) :   0.9435
B(  2-C , 24-H ) :   0.9923 B(  2-C , 25-H ) :   0.9916 B(  2-C , 26-H ) :   0.9773
B(  3-C ,  4-C ) :   1.0364 B(  3-C , 27-H ) :   0.9648 B(  3-C , 28-H ) :   0.9756
B(  4-C ,  5-O ) :   0.8036 B(  4-C , 29-H ) :   0.9812 B(  4-C , 30-H ) :   0.9768
B(  5-O ,  6-C ) :   1.0877 B(  6-C ,  7-O ) :   1.8928 B(  6-C ,  8-C ) :   0.9617
B(  8-C ,  9-C ) :   0.9704 B(  8-C , 15-C ) :   0.9775 B(  8-C , 31-H ) :   0.9399
B(  9-C , 10-C ) :   1.4003 B(  9-C , 14-C ) :   1.4334 B( 10-C , 11-C ) :   1.4358
B( 10-C , 32-H ) :   0.9950 B( 11-C , 12-C ) :   1.4118 B( 11-C , 33-H ) :   1.0005
B( 12-C , 13-C ) :   1.4136 B( 12-C , 34-H ) :   1.0005 B( 13-C , 14-C ) :   1.4266
B( 13-C , 35-H ) :   0.9992 B( 14-C , 36-H ) :   1.0004 B( 15-C , 16-O ) :   0.8788
B( 15-C , 17-C ) :   0.9989 B( 15-C , 20-C ) :   0.9829 B( 16-O , 37-H ) :   0.9510
B( 17-C , 18-C ) :   1.0146 B( 17-C , 38-H ) :   0.9632 B( 17-C , 39-H ) :   0.9672
B( 18-C , 19-C ) :   1.0388 B( 18-C , 40-H ) :   0.9819 B( 18-C , 41-H ) :   0.9679
B( 19-C , 20-C ) :   1.0511 B( 19-C , 42-H ) :   0.9720 B( 19-C , 43-H ) :   0.9725
B( 20-C , 44-H ) :   0.9509 B( 20-C , 45-H ) :   0.9748

FINAL SINGLE POINT ENERGY      -936.647992123663

DIPOLE MOMENT
-------------
                                X             Y             Z
Electronic contribution:     -8.84580       0.43588      -1.08754
Nuclear contribution   :      9.50856       0.44221       1.98639
                        -----------------------------------------
Total Dipole Moment    :      0.66276       0.87810       0.89885
                        -----------------------------------------
Magnitude (a.u.)       :      1.42065
Magnitude (Debye)      :      3.61099

Rotational constants in cm-1:     0.015034     0.005746     0.004592
Rotational constants in MHz :   450.720418   172.256977   137.667531

                             ****ORCA TERMINATED NORMALLY****
TOTAL RUN TIME: 0 days 0 hours 0 minutes 27 seconds 755 msec
