                         Program Version 5.0.3 -  RELEASE  -
|  1> !RHF def2-SVP TightSCF PAL16
|  2> *xyz 0 1
|  3> C 5.154857827933737 0.7024802073237679 -0.3750396216528938
|  4> N 4.058890484084208 0.10883129365537961 0.3964771162091458
|  5> C 4.228691823754893 -1.3450230068160947 0.45197415574231453
|  6> C 2.765040060572714 0.4847270970344568 -0.20504784478637003
|  7> C 1.546488857819936 0.14387075866499552 0.6656963778301377
|  8> O 0.3715762889723658 0.6470304171057775 0.02037239429319424
|  9> C -0.8302073706276484 0.34704343983231173 0.7489249119159697
| 10> C -1.305046126610681 -1.0594187185452615 0.41526314595842717
| 11> C -1.3873911009508186 -1.4996852408350674 -0.9157951206909166
| 12> C -1.8299143285414323 -2.7893237110922264 -1.2132733515801428
| 13> C -2.1974454006449937 -3.654692138350546 -0.18518552679138697
| 14> C -2.123759699144614 -3.231923012809186 1.1405763953478518
| 15> C -1.681484704562876 -1.9419823269825967 1.4405199212778466
| 16> C -1.8930451357822833 1.3995590898515538 0.446484344386856
| 17> C -2.956197849732312 1.5948821763559944 1.3462319567298773
| 18> C -3.9505405927157557 2.5411669490270716 1.0849429188611022
| 19> C -3.8928918488601782 3.299501420066084 -0.08154688177070503
| 20> Br -5.237963121090236 4.579552397173078 -0.4362883635257899
| 21> C -2.8527137478001405 3.1196195194957044 -0.9892675868363484
| 22> C -1.8597028338875585 2.1723583181018014 -0.7266384928405918
| 23> H 6.12163391871837 0.46390490385729194 0.08245874172298885
| 24> H 5.167592861717794 0.35149665927518875 -1.413392317544237
| 25> H 5.075294849435719 1.7953548106104718 -0.38005878486341016
| 26> H 4.149346005919236 -1.8092763030027832 -0.5376724247356965
| 27> H 5.208140103952447 -1.6011529861007432 0.8723205510615846
| 28> H 3.488081007021271 -1.8054094575709236 1.1131335593572447
| 29> H 2.7431049602227744 1.5707812525013722 -0.37006008128200757
| 30> H 2.6428559826715885 0.03481079848230849 -1.1997920725150686
| 31> H 1.6488207341633705 0.6158011468945714 1.6499014894921045
| 32> H 1.453793939083546 -0.9390016389728109 0.7941850705059772
| 33> H -0.6037967477815372 0.42411541791464236 1.8216356348651466
| 34> H -1.1032554309078706 -0.8325055725492065 -1.7271600810829666
| 35> H -1.889480314730379 -3.116482752504989 -2.2479467550967547
| 36> H -2.543788967319418 -4.658208533916539 -0.41785924525104184
| 37> H -2.413183952882749 -3.907313102216842 1.94155413087304
| 38> H -1.6331642125605108 -1.6307414448027961 2.481470893454906
| 39> H -3.018615740711471 1.0041201579005345 2.2576989903456823
| 40> H -4.763260841669776 2.6749261155427155 1.7936584374674496
| 41> H -2.803511443485224 3.706665465676466 -1.902213453383865
| 42> H -1.0538481930436796 2.0395401347250433 -1.4460470885186885
| 43> *
| 44>
| 45>                          ****END OF INPUT****

CARTESIAN COORDINATES (ANGSTROEM)
---------------------------------
  C      5.154858    0.702480   -0.375040
  N      4.058890    0.108831    0.396477
  C      4.228692   -1.345023    0.451974
  C      2.765040    0.484727   -0.205048
  C      1.546489    0.143871    0.665696
  O      0.371576    0.647030    0.020372
  C     -0.830207    0.347043    0.748925
  C     -1.305046   -1.059419    0.415263
  C     -1.387391   -1.499685   -0.915795
  C     -1.829914   -2.789324   -1.213273
  C     -2.197445   -3.654692   -0.185186
  C     -2.123760   -3.231923    1.140576
  C     -1.681485   -1.941982    1.440520
  C     -1.893045    1.399559    0.446484
  C     -2.956198    1.594882    1.346232
  C     -3.950541    2.541167    1.084943
  C     -3.892892    3.299501   -0.081547
  Br    -5.237963    4.579552   -0.436288
  C     -2.852714    3.119620   -0.989268
  C     -1.859703    2.172358   -0.726638
  H      6.121634    0.463905    0.082459
  H      5.167593    0.351497   -1.413392
  H      5.075295    1.795355   -0.380059
  H      4.149346   -1.809276   -0.537672
  H      5.208140   -1.601153    0.872321
  H      3.488081   -1.805409    1.113134
  H      2.743105    1.570781   -0.370060
  H      2.642856    0.034811   -1.199792
  H      1.648821    0.615801    1.649901
  H      1.453794   -0.939002    0.794185
  H     -0.603797    0.424115    1.821636
  H     -1.103255   -0.832506   -1.727160
  H     -1.889480   -3.116483   -2.247947
  H     -2.543789   -4.658209   -0.417859
  H     -2.413184   -3.907313    1.941554
  H     -1.633164   -1.630741    2.481471
  H     -3.018616    1.004120    2.257699
  H     -4.763261    2.674926    1.793658
  H     -2.803511    3.706665   -1.902213
  H     -1.053848    2.039540   -1.446047

 Total Charge           Charge          ....    0
 Multiplicity           Mult            ....    1
 Number of Electrons    NEL             ....  172
 Basis Dimension        Dim             ....  398

ORBITAL ENERGIES
----------------

  NO   OCC          E(Eh)            E(eV)
   0   2.0000    -489.967826    -13332.7024
   1   2.0000     -65.136273     -1772.4481
   2   2.0000     -58.508313     -1592.0921
   3   2.0000     -58.506740     -1592.0493
   4   2.0000     -58.506726     -1592.0489
   5   2.0000     -20.557763      -559.4052
   6   2.0000     -15.550122      -423.1403
   7   2.0000     -11.306723      -307.6716
   8   2.0000     -11.293974      -307.3247
   9   2.0000     -11.282155      -307.0031
  10   2.0000     -11.255856      -306.2874
  11   2.0000     -11.254230      -306.2432
  12   2.0000     -11.253760      -306.2304
  13   2.0000     -11.251917      -306.1802
  14   2.0000     -11.251865      -306.1788
  15   2.0000     -11.251297      -306.1634
  16   2.0000     -11.251292      -306.1632
  17   2.0000     -11.249886      -306.1250
  18   2.0000     -11.246555      -306.0343
  19   2.0000     -11.246167      -306.0238
  20   2.0000     -11.244133      -305.9684
  21   2.0000     -11.243598      -305.9539
  22   2.0000     -11.242284      -305.9181
  23   2.0000     -11.241652      -305.9009
  24   2.0000      -9.827965      -267.4325
  25   2.0000      -7.444757      -202.5821
  26   2.0000      -7.435627      -202.3337
  27   2.0000      -7.435537      -202.3312
  28   2.0000      -3.187454       -86.7350
  29   2.0000      -3.183279       -86.6214
  30   2.0000      -3.183186       -86.6189
  31   2.0000      -3.173199       -86.3471
  32   2.0000      -3.173196       -86.3471
  33   2.0000      -1.361871       -37.0584
  34   2.0000      -1.212126       -32.9836
  35   2.0000      -1.164229       -31.6803
  36   2.0000      -1.147607       -31.2280
  37   2.0000      -1.078936       -29.3593
  38   2.0000      -1.034829       -28.1591
  39   2.0000      -1.016851       -27.6699
  40   2.0000      -1.008833       -27.4517
  41   2.0000      -0.995964       -27.1016
  42   2.0000      -0.971592       -26.4384
  43   2.0000      -0.942461       -25.6457
  44   2.0000      -0.903240       -24.5784
  45   2.0000      -0.864787       -23.5320
  46   2.0000      -0.834465       -22.7069
  47   2.0000      -0.824422       -22.4337
  48   2.0000      -0.812702       -22.1148
  49   2.0000      -0.791665       -21.5423
  50   2.0000      -0.781637       -21.2694
  51   2.0000      -0.712437       -19.3864
  52   2.0000      -0.692377       -18.8405
  53   2.0000      -0.684766       -18.6334
  54   2.0000      -0.668929       -18.2025
  55   2.0000      -0.649443       -17.6722
  56   2.0000      -0.640090       -17.4177
  57   2.0000      -0.634260       -17.2591
  58   2.0000      -0.628203       -17.0943
  59   2.0000      -0.626428       -17.0460
  60   2.0000      -0.618888       -16.8408
  61   2.0000      -0.602735       -16.4013
  62   2.0000      -0.598137       -16.2761
  63   2.0000      -0.593096       -16.1390
  64   2.0000      -0.590229       -16.0609
  65   2.0000      -0.577478       -15.7140
  66   2.0000      -0.548951       -14.9377
  67   2.0000      -0.538177       -14.6445
  68   2.0000      -0.529275       -14.4023
  69   2.0000      -0.519918       -14.1477
  70   2.0000      -0.515365       -14.0238
  71   2.0000      -0.510210       -13.8835
  72   2.0000      -0.508574       -13.8390
  73   2.0000      -0.506076       -13.7710
  74   2.0000      -0.500576       -13.6214
  75   2.0000      -0.493976       -13.4418
  76   2.0000      -0.481605       -13.1051
  77   2.0000      -0.471371       -12.8267
  78   2.0000      -0.436230       -11.8704
  79   2.0000      -0.427330       -11.6282
  80   2.0000      -0.410081       -11.1589
  81   2.0000      -0.363210        -9.8834
  82   2.0000      -0.349314        -9.5053
  83   2.0000      -0.343762        -9.3542
  84   2.0000      -0.342218        -9.3122
  85   2.0000      -0.318521        -8.6674
  86   0.0000       0.106686         2.9031
  87   0.0000       0.113213         3.0807
  88   0.0000       0.129884         3.5343
  89   0.0000       0.139253         3.7893
  90   0.0000       0.162099         4.4109

MULLIKEN ATOMIC CHARGES
-----------------------
   0 C :    0.153011
   1 N :   -0.636186
   2 C :    0.145759
   3 C :    0.129632
   4 C :    0.312028
   5 O :   -0.628635
   6 C :    0.467550
   7 C :   -0.165169
   8 C :    0.004690
   9 C :   -0.034048
  10 C :   -0.036277
  11 C :   -0.033415
  12 C :   -0.029693
  13 C :   -0.152620
  14 C :   -0.015873
  15 C :    0.008259
  16 C :   -0.098436
  17 Br:   -0.050609
  18 C :    0.010593
  19 C :   -0.004130
  20 H :    0.032631
  21 H :    0.002941
  22 H :    0.033726
  23 H :    0.005128
  24 H :    0.032698
  25 H :    0.034690
  26 H :    0.036523
  27 H :    0.012856
  28 H :    0.023180
  29 H :    0.021454
  30 H :    0.024180
  31 H :    0.044335
  32 H :    0.042806
  33 H :    0.042421
  34 H :    0.040915
  35 H :    0.028589
  36 H :    0.036028
  37 H :    0.048922
  38 H :    0.049092
  39 H :    0.060452
Sum of atomic charges:    0.0000000

LOEWDIN ATOMIC CHARGES
----------------------
   0 C :    0.057003
   1 N :   -0.207771
   2 C :    0.053432
   3 C :    0.057776
   4 C :    0.130794
   5 O :   -0.256942
   6 C :    0.138077
   7 C :   -0.039850
   8 C :   -0.008013
   9 C :   -0.020729
  10 C :   -0.026238
  11 C :   -0.023470
  12 C :   -0.031199
  13 C :   -0.024895
  14 C :   -0.016799
  15 C :   -0.027399
  16 C :   -0.126019
  17 Br:    0.076014
  18 C :   -0.027119
  19 C :   -0.007746
  20 H :    0.012950
  21 H :   -0.006826
  22 H :    0.013501
  23 H :   -0.006001
  24 H :    0.014440
  25 H :    0.010611
  26 H :    0.017127
  27 H :   -0.004027
  28 H :    0.005091
  29 H :    0.000326
  30 H :    0.013982
  31 H :    0.029205
  32 H :    0.028038
  33 H :    0.026826
  34 H :    0.027132
  35 H :    0.021823
  36 H :    0.026747
  37 H :    0.032827
  38 H :    0.032854
  39 H :    0.034468

  Mayer bond orders larger than 0.100000
B(  0-C ,  1-N ) :   0.9459 B(  0-C , 20-H ) :   0.9923 B(  0-C , 21-H ) :   0.9766
B(  0-C , 22-H ) :   0.9918 B(  1-N ,  2-C ) :   0.9365 B(  1-N ,  3-C ) :   0.9374
B(  2-C , 23-H ) :   0.9756 B(  2-C , 24-H ) :   0.9913 B(  2-C , 25-H ) :   0.9926
B(  3-C ,  4-C ) :   1.0436 B(  3-C , 26-H ) :   0.9742 B(  3-C , 27-H ) :   0.9685
B(  4-C ,  5-O ) :   0.8699 B(  4-C , 28-H ) :   0.9652 B(  4-C , 29-H ) :   0.9719
B(  5-O ,  6-C ) :   0.8911 B(  6-C ,  7-C ) :   0.9891 B(  6-C , 13-C ) :   0.9983
B(  6-C , 30-H ) :   0.9776 B(  7-C ,  8-C ) :   1.3984 B(  7-C , 12-C ) :   1.4196
B(  8-C ,  9-C ) :   1.4352 B(  8-C , 31-H ) :   1.0002 B(  9-C , 10-C ) :   1.3995
B(  9-C , 32-H ) :   1.0010 B( 10-C , 11-C ) :   1.4257 B( 10-C , 33-H ) :   0.9997
B( 11-C , 12-C ) :   1.4133 B( 11-C , 34-H ) :   0.9992 B( 12-C , 35-H ) :   1.0029
B( 13-C , 14-C ) :   1.4082 B( 13-C , 19-C ) :   1.4245 B( 14-C , 15-C ) :   1.4481
B( 14-C , 36-H ) :   0.9992 B( 15-C , 16-C ) :   1.4129 B( 15-C , 37-H ) :   0.9987
B( 16-C , 17-Br) :   0.9867 B( 16-C , 18-C ) :   1.4138 B( 18-C , 19-C ) :   1.4260
B( 18-C , 38-H ) :   1.0006 B( 19-C , 39-H ) :   0.9976

FINAL SINGLE POINT ENERGY     -3356.207816409745

DIPOLE MOMENT
-------------
                                X             Y             Z
Electronic contribution:    -77.62565      57.40003      -6.50577
Nuclear contribution   :     78.35008     -58.45376       6.71574
                        -----------------------------------------
Total Dipole Moment    :      0.72443      -1.05373       0.20997
                        -----------------------------------------
Magnitude (a.u.)       :      1.29585
Magnitude (Debye)      :      3.29380

Rotational constants in cm-1:     0.011982     0.003612     0.002959
Rotational constants in MHz :   359.219519   108.298367    88.696694

                             ****ORCA TERMINATED NORMALLY****
TOTAL RUN TIME: 0 days 0 hours 0 minutes 22 seconds 773 msec
