                         Program Version 5.0.3 -  RELEASE  -
|  1> !RHF def2-SVP TightSCF PAL16
|  2> *xyz 0 1
|  3> C 4.873421182093805 3.478323126884039 -0.9128672978657594
|  4> O 4.287798941539245 2.2768157664381454 -0.4114439320345818
|  5> C 4.876757690886008 1.146234305397294 -0.8689802017390283
|  6> O 5.826126943113283 1.0891265712382188 -1.6368598444255456
|  7> C 4.237764958975594 -0.07076717533811515 -0.32741775790176586
|  8> C 3.1975280110705206 -0.0682432528009623 0.5208426431638296
|  9> C 2.5618336525648444 -1.2954077160443576 1.0379964091313396
| 10> C 3.3549336507046688 -2.3653977906924686 1.4844014541961899
| 11> C 2.767760722248273 -3.5207092752416 1.9982477849343576
| 12> C 1.3828570919620375 -3.615299161460966 2.079495537032245
| 13> C 0.5792524395703016 -2.553806430501947 1.6550886913857161
| 14> C 1.15587882424674 -1.3866459037072507 1.1411263891595635
| 15> O 0.45077552988648395 -0.2972121628995094 0.695875624535185
| 16> C -0.9771282628197011 -0.2771135478569205 0.8145418337698219
| 17> C -1.6172710569767648 -0.9132070946861902 -0.42563475154111285
| 18> O -1.2477214169227553 -0.17475320226830116 -1.5973758562175067
| 19> C -3.1534996291555757 -1.0399952582769214 -0.31707827085000356
| 20> N -3.9314564078850847 0.1482248219992358 0.0637719603547838
| 21> C -3.9098500913525065 1.2522344144992892 -0.9056638187596457
| 22> C -4.695277341942666 2.4204438907562777 -0.2990707563006448
| 23> C -4.526293422543159 0.8738279443204391 -2.253507921584296
| 24> H 5.921023421262985 3.552355423049175 -0.6044710327694869
| 25> H 4.327071397229456 4.32467384825801 -0.4874509391663898
| 26> H 4.785506506981723 3.522397417862788 -2.0030095095243605
| 27> H 4.680270494065182 -0.9921869982105195 -0.6899205512812525
| 28> H 2.744750343641216 0.863838974483023 0.8518833446263432
| 29> H 4.44037880060767 -2.3054690437537055 1.4471454367298209
| 30> H 3.392118369982882 -4.343274318484279 2.3381335615679104
| 31> H 0.9244008641905067 -4.51717648118639 2.478527189207606
| 32> H -0.49407372810893996 -2.6811676363376775 1.7388890687548992
| 33> H -1.2434208115527723 0.7854267144534822 0.8540426111079261
| 34> H -1.3216882322760097 -0.7182220530582066 1.7557762774592536
| 35> H -1.2095215112983984 -1.919067078650367 -0.5762511620704944
| 36> H -0.28063974104151285 -0.05218454862606867 -1.5456023893422948
| 37> H -3.54929766746196 -1.4524210645372622 -1.2517221053002956
| 38> H -3.364519111759298 -1.7973285112282258 0.4484519014508818
| 39> H -3.625508576019351 0.4930025783373694 0.9713936988010634
| 40> H -2.884958971744812 1.6044660780578754 -1.0605468421072808
| 41> H -4.687780992417367 3.2835965414024098 -0.9737460789930723
| 42> H -5.7405421617058385 2.148973140012272 -0.11189127377955023
| 43> H -4.25286191766365 2.7427250425739347 0.6504031610649195
| 44> H -3.920662033095748 0.1318090470755225 -2.7826295522918114
| 45> H -4.598015658337638 1.7518354831965643 -2.905095720149914
| 46> H -5.536221092742693 0.46672457555269237 -2.131092882798964
| 47> *
| 48>
| 49>                          ****END OF INPUT****

CARTESIAN COORDINATES (ANGSTROEM)
---------------------------------
  C      4.873421    3.478323   -0.912867
  O      4.287799    2.276816   -0.411444
  C      4.876758    1.146234   -0.868980
  O      5.826127    1.089127   -1.636860
  C      4.237765   -0.070767   -0.327418
  C      3.197528   -0.068243    0.520843
  C      2.561834   -1.295408    1.037996
  C      3.354934   -2.365398    1.484401
  C      2.767761   -3.520709    1.998248
  C      1.382857   -3.615299    2.079496
  C      0.579252   -2.553806    1.655089
  C      1.155879   -1.386646    1.141126
  O      0.450776   -0.297212    0.695876
  C     -0.977128   -0.277114    0.814542
  C     -1.617271   -0.913207   -0.425635
  O     -1.247721   -0.174753   -1.597376
  C     -3.153500   -1.039995   -0.317078
  N     -3.931456    0.148225    0.063772
  C     -3.909850    1.252234   -0.905664
  C     -4.695277    2.420444   -0.299071
  C     -4.526293    0.873828   -2.253508
  H      5.921023    3.552355   -0.604471
  H      4.327071    4.324674   -0.487451
  H      4.785507    3.522397   -2.003010
  H      4.680270   -0.992187   -0.689921
  H      2.744750    0.863839    0.851883
  H      4.440379   -2.305469    1.447145
  H      3.392118   -4.343274    2.338134
  H      0.924401   -4.517176    2.478527
  H     -0.494074   -2.681168    1.738889
  H     -1.243421    0.785427    0.854043
  H     -1.321688   -0.718222    1.755776
  H     -1.209522   -1.919067   -0.576251
  H     -0.280640   -0.052185   -1.545602
  H     -3.549298   -1.452421   -1.251722
  H     -3.364519   -1.797329    0.448452
  H     -3.625509    0.493003    0.971394
  H     -2.884959    1.604466   -1.060547
  H     -4.687781    3.283597   -0.973746
  H     -5.740542    2.148973   -0.111891
  H     -4.252862    2.742725    0.650403
  H     -3.920662    0.131809   -2.782630
  H     -4.598016    1.751835   -2.905096
  H     -5.536221    0.466725   -2.131093

 Total Charge           Charge          ....    0
 Multiplicity           Mult            ....    1
 Number of Electrons    NEL             ....  158
 Basis Dimension        Dim             ....  409

ORBITAL ENERGIES
----------------

  NO   OCC          E(Eh)            E(eV)
   0   2.0000     -20.602280      -560.6165
   1   2.0000     -20.598666      -560.5182
   2   2.0000     -20.552507      -559.2622
   3   2.0000     -20.536517      -558.8270
   4   2.0000     -15.542391      -422.9300
   5   2.0000     -11.383903      -309.7718
   6   2.0000     -11.327842      -308.2463
   7   2.0000     -11.309355      -307.7432
   8   2.0000     -11.293592      -307.3143
   9   2.0000     -11.291683      -307.2623
  10   2.0000     -11.269961      -306.6712
  11   2.0000     -11.262243      -306.4612
  12   2.0000     -11.260247      -306.4069
  13   2.0000     -11.260159      -306.4045
  14   2.0000     -11.258971      -306.3722
  15   2.0000     -11.254376      -306.2472
  16   2.0000     -11.246374      -306.0294
  17   2.0000     -11.245599      -306.0083
  18   2.0000     -11.244923      -305.9899
  19   2.0000     -11.214891      -305.1727
  20   2.0000     -11.210353      -305.0492
  21   2.0000      -1.439509       -39.1710
  22   2.0000      -1.414397       -38.4877
  23   2.0000      -1.340270       -36.4706
  24   2.0000      -1.336436       -36.3663
  25   2.0000      -1.194574       -32.5060
  26   2.0000      -1.162234       -31.6260
  27   2.0000      -1.089034       -29.6341
  28   2.0000      -1.049660       -28.5627
  29   2.0000      -1.023409       -27.8484
  30   2.0000      -1.019876       -27.7522
  31   2.0000      -0.989306       -26.9204
  32   2.0000      -0.955526       -26.0012
  33   2.0000      -0.927926       -25.2502
  34   2.0000      -0.910361       -24.7722
  35   2.0000      -0.878782       -23.9129
  36   2.0000      -0.835412       -22.7327
  37   2.0000      -0.811930       -22.0938
  38   2.0000      -0.801084       -21.7986
  39   2.0000      -0.765611       -20.8333
  40   2.0000      -0.762959       -20.7612
  41   2.0000      -0.736091       -20.0301
  42   2.0000      -0.715709       -19.4754
  43   2.0000      -0.707087       -19.2408
  44   2.0000      -0.689881       -18.7726
  45   2.0000      -0.685722       -18.6594
  46   2.0000      -0.672567       -18.3015
  47   2.0000      -0.668176       -18.1820
  48   2.0000      -0.661338       -17.9959
  49   2.0000      -0.655953       -17.8494
  50   2.0000      -0.632714       -17.2170
  51   2.0000      -0.615809       -16.7570
  52   2.0000      -0.610123       -16.6023
  53   2.0000      -0.607079       -16.5195
  54   2.0000      -0.599148       -16.3036
  55   2.0000      -0.594709       -16.1828
  56   2.0000      -0.581948       -15.8356
  57   2.0000      -0.572024       -15.5656
  58   2.0000      -0.556256       -15.1365
  59   2.0000      -0.552153       -15.0248
  60   2.0000      -0.546404       -14.8684
  61   2.0000      -0.537115       -14.6157
  62   2.0000      -0.530964       -14.4483
  63   2.0000      -0.527592       -14.3565
  64   2.0000      -0.523085       -14.2339
  65   2.0000      -0.521095       -14.1797
  66   2.0000      -0.512252       -13.9391
  67   2.0000      -0.502412       -13.6713
  68   2.0000      -0.498177       -13.5561
  69   2.0000      -0.484592       -13.1864
  70   2.0000      -0.483018       -13.1436
  71   2.0000      -0.468168       -12.7395
  72   2.0000      -0.462360       -12.5815
  73   2.0000      -0.449877       -12.2418
  74   2.0000      -0.443478       -12.0676
  75   2.0000      -0.410059       -11.1583
  76   2.0000      -0.366022        -9.9600
  77   2.0000      -0.346572        -9.4307
  78   2.0000      -0.322069        -8.7639
  79   0.0000       0.071970         1.9584
  80   0.0000       0.123442         3.3590
  81   0.0000       0.148119         4.0305
  82   0.0000       0.157691         4.2910
  83   0.0000       0.174427         4.7464

MULLIKEN ATOMIC CHARGES
-----------------------
   0 C :    0.233638
   1 O :   -0.545933
   2 C :    0.557808
   3 O :   -0.420501
   4 C :   -0.199848
   5 C :    0.132124
   6 C :   -0.181975
   7 C :    0.013264
   8 C :   -0.062635
   9 C :    0.008527
  10 C :   -0.150402
  11 C :    0.370480
  12 O :   -0.591625
  13 C :    0.278048
  14 C :    0.139180
  15 O :   -0.461867
  16 C :    0.174949
  17 N :   -0.479159
  18 C :   -0.015467
  19 C :   -0.000159
  20 C :   -0.008849
  21 H :    0.046540
  22 H :    0.042042
  23 H :    0.047206
  24 H :    0.066802
  25 H :    0.087818
  26 H :    0.050795
  27 H :    0.044343
  28 H :    0.049138
  29 H :    0.041056
  30 H :    0.048661
  31 H :    0.040812
  32 H :    0.030224
  33 H :    0.210554
  34 H :    0.051996
  35 H :    0.026521
  36 H :    0.118518
  37 H :    0.034610
  38 H :    0.027220
  39 H :    0.032374
  40 H :    0.013602
  41 H :    0.044175
  42 H :    0.026325
  43 H :    0.029069
Sum of atomic charges:   -0.0000000

LOEWDIN ATOMIC CHARGES
----------------------
   0 C :    0.138051
   1 O :   -0.192419
   2 C :    0.211144
   3 O :   -0.277878
   4 C :   -0.087431
   5 C :    0.064784
   6 C :   -0.070553
   7 C :    0.013556
   8 C :   -0.050202
   9 C :    0.002845
  10 C :   -0.082223
  11 C :    0.110526
  12 O :   -0.198042
  13 C :    0.121506
  14 C :    0.076858
  15 O :   -0.196194
  16 C :    0.054644
  17 N :   -0.154997
  18 C :    0.036506
  19 C :   -0.034327
  20 C :   -0.033368
  21 H :    0.017206
  22 H :    0.017464
  23 H :    0.017462
  24 H :    0.035201
  25 H :    0.041150
  26 H :    0.034066
  27 H :    0.028537
  28 H :    0.031886
  29 H :    0.026123
  30 H :    0.022241
  31 H :    0.011411
  32 H :    0.006789
  33 H :    0.086603
  34 H :    0.023905
  35 H :    0.013960
  36 H :    0.045308
  37 H :   -0.004420
  38 H :    0.016021
  39 H :    0.016833
  40 H :    0.007222
  41 H :    0.016959
  42 H :    0.018847
  43 H :    0.016443

  Mayer bond orders larger than 0.100000
B(  0-C ,  1-O ) :   0.8286 B(  0-C , 21-H ) :   0.9910 B(  0-C , 22-H ) :   0.9930
B(  0-C , 23-H ) :   0.9911 B(  1-O ,  2-C ) :   1.0799 B(  2-C ,  3-O ) :   1.9442
B(  2-C ,  4-C ) :   1.0403 B(  4-C ,  5-C ) :   1.8367 B(  4-C , 24-H ) :   0.9855
B(  5-C ,  6-C ) :   1.0001 B(  5-C , 25-H ) :   0.9663 B(  6-C ,  7-C ) :   1.4353
B(  6-C , 11-C ) :   1.3983 B(  7-C ,  8-C ) :   1.4137 B(  7-C , 26-H ) :   1.0012
B(  8-C ,  9-C ) :   1.4238 B(  8-C , 27-H ) :   1.0012 B(  9-C , 10-C ) :   1.3916
B(  9-C , 28-H ) :   0.9976 B( 10-C , 11-C ) :   1.3738 B( 10-C , 29-H ) :   1.0041
B( 11-C , 12-O ) :   0.9925 B( 12-O , 13-C ) :   0.8264 B( 13-C , 14-C ) :   0.9944
B( 13-C , 30-H ) :   0.9646 B( 13-C , 31-H ) :   0.9784 B( 14-C , 15-O ) :   0.9098
B( 14-C , 16-C ) :   0.9928 B( 14-C , 32-H ) :   0.9674 B( 15-O , 33-H ) :   0.9598
B( 16-C , 17-N ) :   1.0012 B( 16-C , 34-H ) :   0.9771 B( 16-C , 35-H ) :   0.9807
B( 17-N , 18-C ) :   0.9303 B( 17-N , 36-H ) :   0.9598 B( 18-C , 19-C ) :   1.0317
B( 18-C , 20-C ) :   1.0280 B( 18-C , 37-H ) :   0.9618 B( 19-C , 38-H ) :   0.9865
B( 19-C , 39-H ) :   0.9788 B( 19-C , 40-H ) :   0.9855 B( 20-C , 41-H ) :   0.9827
B( 20-C , 42-H ) :   0.9851 B( 20-C , 43-H ) :   0.9774

FINAL SINGLE POINT ENERGY      -972.423255368288

DIPOLE MOMENT
-------------
                                X             Y             Z
Electronic contribution:     28.61991      -7.98192       4.95229
Nuclear contribution   :    -29.15967       7.73326      -3.64543
                        -----------------------------------------
Total Dipole Moment    :     -0.53976      -0.24866       1.30686
                        -----------------------------------------
Magnitude (a.u.)       :      1.43564
Magnitude (Debye)      :      3.64910

Rotational constants in cm-1:     0.011674     0.004726     0.003594
Rotational constants in MHz :   349.992606   141.696192   107.735883

                             ****ORCA TERMINATED NORMALLY****
TOTAL RUN TIME: 0 days 0 hours 0 minutes 20 seconds 841 msec
