                         Program Version 5.0.3 -  RELEASE  -
|  1> !RHF def2-SVP TightSCF PAL16
|  2> *xyz 0 1
|  3> C 0.9988727755570727 -1.5189700789746117 -1.5697000297295574
|  4> C 0.5410683070146721 -1.0680684781910974 -0.17811963751673532
|  5> C 1.752625781724612 -0.8819613557189971 0.7381262636395832
|  6> O 2.8246509496177272 -0.37190755651343416 0.45332540521634784
|  7> O 1.5256352408474005 -1.3144282371728344 1.9987268001901706
|  8> N -0.3342464343313787 0.13696219375072763 -0.2244981646850409
|  9> C -1.0638563503898246 0.3806248792659485 1.041065571071328
| 10> C -1.980955008327613 -0.7433293893190535 1.554936913355768
| 11> Cl -3.227757547298273 -1.1936899807268992 0.36716494940140043
| 12> C 0.36964918842314454 1.3558808068365558 -0.6862214812019413
| 13> C -0.5402104821407825 2.4538100754146597 -1.2631183021891061
| 14> Cl -1.4127017265381914 1.905630258134658 -2.7162811642727545
| 15> H 1.7293182476989988 -0.8407570666822136 -2.020981709734451
| 16> H 0.14639301707800473 -1.6149263979821455 -2.250707615375385
| 17> H 1.4835762464775861 -2.500239406888383 -1.5045819048293687
| 18> H -0.031709237833824205 -1.9208212069242807 0.20299145258608178
| 19> H 2.37174210870383 -1.1326989258423912 2.4604162606328126
| 20> H -1.7052608388669508 1.2608984453241388 0.9178373765390239
| 21> H -0.35549119352658415 0.636793680123065 1.8389058345786402
| 22> H -1.4235416387125683 -1.6441072127269607 1.8241496723578234
| 23> H -2.5043476568926146 -0.4034797037732064 2.4544113692021647
| 24> H 1.0901353466823398 1.1132531021621266 -1.4741428744092566
| 25> H 0.9563818838629009 1.7840848286480975 0.1367638729923158
| 26> H 0.06810284697195387 3.313535828047783 -1.5615043089220706
| 27> H -1.2780738258019542 2.807910899728648 -0.5389645488980983
| 28> *
| 29>
| 30>                          ****END OF INPUT****

CARTESIAN COORDINATES (ANGSTROEM)
---------------------------------
  C      0.998873   -1.518970   -1.569700
  C      0.541068   -1.068068   -0.178120
  C      1.752626   -0.881961    0.738126
  O      2.824651   -0.371908    0.453325
  O      1.525635   -1.314428    1.998727
  N     -0.334246    0.136962   -0.224498
  C     -1.063856    0.380625    1.041066
  C     -1.980955   -0.743329    1.554937
  Cl    -3.227758   -1.193690    0.367165
  C      0.369649    1.355881   -0.686221
  C     -0.540210    2.453810   -1.263118
  Cl    -1.412702    1.905630   -2.716281
  H      1.729318   -0.840757   -2.020982
  H      0.146393   -1.614926   -2.250708
  H      1.483576   -2.500239   -1.504582
  H     -0.031709   -1.920821    0.202991
  H      2.371742   -1.132699    2.460416
  H     -1.705261    1.260898    0.917837
  H     -0.355491    0.636794    1.838906
  H     -1.423542   -1.644107    1.824150
  H     -2.504348   -0.403480    2.454411
  H      1.090135    1.113253   -1.474143
  H      0.956382    1.784085    0.136764
  H      0.068103    3.313536   -1.561504
  H     -1.278074    2.807911   -0.538965

 Total Charge           Charge          ....    0
 Multiplicity           Mult            ....    1
 Number of Electrons    NEL             ....  112
 Basis Dimension        Dim             ....  241

ORBITAL ENERGIES
----------------

  NO   OCC          E(Eh)            E(eV)
   0   2.0000    -104.773613     -2851.0349
   1   2.0000    -104.769464     -2850.9221
   2   2.0000     -20.622627      -561.1702
   3   2.0000     -20.558203      -559.4171
   4   2.0000     -15.576465      -423.8572
   5   2.0000     -11.399247      -310.1893
   6   2.0000     -11.300366      -307.4986
   7   2.0000     -11.296421      -307.3912
   8   2.0000     -11.293414      -307.3094
   9   2.0000     -11.282818      -307.0211
  10   2.0000     -11.278598      -306.9063
  11   2.0000     -11.234124      -305.6960
  12   2.0000     -10.537115      -286.7295
  13   2.0000     -10.532957      -286.6163
  14   2.0000      -8.012170      -218.0222
  15   2.0000      -8.008691      -217.9276
  16   2.0000      -8.008637      -217.9261
  17   2.0000      -8.008015      -217.9092
  18   2.0000      -8.004562      -217.8152
  19   2.0000      -8.004465      -217.8126
  20   2.0000      -1.462300       -39.7912
  21   2.0000      -1.347729       -36.6736
  22   2.0000      -1.237370       -33.6705
  23   2.0000      -1.131629       -30.7932
  24   2.0000      -1.121143       -30.5078
  25   2.0000      -1.045392       -28.4466
  26   2.0000      -0.996220       -27.1085
  27   2.0000      -0.941588       -25.6219
  28   2.0000      -0.906370       -24.6636
  29   2.0000      -0.845348       -23.0031
  30   2.0000      -0.825052       -22.4508
  31   2.0000      -0.766771       -20.8649
  32   2.0000      -0.716094       -19.4859
  33   2.0000      -0.704195       -19.1621
  34   2.0000      -0.685246       -18.6465
  35   2.0000      -0.670292       -18.2396
  36   2.0000      -0.655323       -17.8323
  37   2.0000      -0.627674       -17.0799
  38   2.0000      -0.619991       -16.8708
  39   2.0000      -0.607481       -16.5304
  40   2.0000      -0.604586       -16.4516
  41   2.0000      -0.573196       -15.5974
  42   2.0000      -0.558364       -15.1939
  43   2.0000      -0.544198       -14.8084
  44   2.0000      -0.540689       -14.7129
  45   2.0000      -0.528161       -14.3720
  46   2.0000      -0.516056       -14.0426
  47   2.0000      -0.504889       -13.7387
  48   2.0000      -0.504455       -13.7269
  49   2.0000      -0.486616       -13.2415
  50   2.0000      -0.470853       -12.8126
  51   2.0000      -0.429028       -11.6745
  52   2.0000      -0.427719       -11.6388
  53   2.0000      -0.425027       -11.5656
  54   2.0000      -0.421925       -11.4812
  55   2.0000      -0.377475       -10.2716
  56   0.0000       0.153509         4.1772
  57   0.0000       0.163357         4.4452
  58   0.0000       0.175553         4.7770
  59   0.0000       0.185698         5.0531
  60   0.0000       0.191971         5.2238

MULLIKEN ATOMIC CHARGES
-----------------------
   0 C :    0.029770
   1 C :   -0.000232
   2 C :    0.457125
   3 O :   -0.416115
   4 O :   -0.356649
   5 N :   -0.619384
   6 C :    0.168357
   7 C :    0.034885
   8 Cl:   -0.214873
   9 C :    0.145395
  10 C :    0.064050
  11 Cl:   -0.220113
  12 H :    0.053687
  13 H :    0.065690
  14 H :    0.033535
  15 H :    0.077389
  16 H :    0.224145
  17 H :    0.044773
  18 H :    0.026125
  19 H :    0.082704
  20 H :    0.079974
  21 H :    0.061911
  22 H :    0.028817
  23 H :    0.077959
  24 H :    0.071075
Sum of atomic charges:   -0.0000000

LOEWDIN ATOMIC CHARGES
----------------------
   0 C :   -0.020514
   1 C :    0.027670
   2 C :    0.200555
   3 O :   -0.277509
   4 O :   -0.110458
   5 N :   -0.183871
   6 C :    0.046496
   7 C :   -0.048524
   8 Cl:    0.008507
   9 C :    0.050577
  10 C :   -0.046174
  11 Cl:    0.006553
  12 H :    0.022760
  13 H :    0.032366
  14 H :    0.022752
  15 H :    0.029727
  16 H :    0.113630
  17 H :    0.017264
  18 H :   -0.000450
  19 H :    0.017288
  20 H :    0.025451
  21 H :    0.025017
  22 H :    0.002835
  23 H :    0.023529
  24 H :    0.014526

  Mayer bond orders larger than 0.100000
B(  0-C ,  1-C ) :   1.0482 B(  0-C , 12-H ) :   0.9749 B(  0-C , 13-H ) :   0.9823
B(  0-C , 14-H ) :   0.9814 B(  1-C ,  2-C ) :   0.8785 B(  1-C ,  5-N ) :   0.9592
B(  1-C , 15-H ) :   0.9684 B(  2-C ,  3-O ) :   1.9734 B(  2-C ,  4-O ) :   1.1183
B(  4-O , 16-H ) :   0.9419 B(  5-N ,  6-C ) :   0.9296 B(  5-N ,  9-C ) :   0.9251
B(  6-C ,  7-C ) :   1.0162 B(  6-C , 17-H ) :   0.9701 B(  6-C , 18-H ) :   0.9622
B(  7-C ,  8-Cl) :   0.9737 B(  7-C , 19-H ) :   0.9687 B(  7-C , 20-H ) :   0.9729
B(  9-C , 10-C ) :   1.0134 B(  9-C , 21-H ) :   0.9723 B(  9-C , 22-H ) :   0.9631
B( 10-C , 11-Cl) :   0.9723 B( 10-C , 23-H ) :   0.9745 B( 10-C , 24-H ) :   0.9672

FINAL SINGLE POINT ENERGY     -1395.164502116767

DIPOLE MOMENT
-------------
                                X             Y             Z
Electronic contribution:    -10.59363       0.39878      -4.52353
Nuclear contribution   :     11.17984      -0.20827       5.91999
                        -----------------------------------------
Total Dipole Moment    :      0.58621       0.19051       1.39645
                        -----------------------------------------
Magnitude (a.u.)       :      1.52644
Magnitude (Debye)      :      3.87989

Rotational constants in cm-1:     0.022032     0.017588     0.011840
Rotational constants in MHz :   660.494403   527.267898   354.958895

                             ****ORCA TERMINATED NORMALLY****
TOTAL RUN TIME: 0 days 0 hours 0 minutes 7 seconds 793 msec
