                         Program Version 5.0.3 -  RELEASE  -
|  1> !RHF def2-SVP TightSCF PAL16
|  2> *xyz 0 1
|  3> C -3.4535663546602446 0.12566383518931137 1.4216430777438558
|  4> C -2.8026080429373232 0.4942028461998199 0.08568546502934343
|  5> C -3.4284283423966366 -0.2377908073780839 -1.0881105067176648
|  6> O -3.5529384278537606 0.20491814625030197 -2.2204023979616445
|  7> O -3.8216129265252263 -1.4983303291998769 -0.8164765598287992
|  8> C -1.2932088145497465 0.32825566018074387 0.10696386398030956
|  9> C -0.464644342637809 1.4167762390451837 -0.20058839823423164
| 10> C 0.9272136043452072 1.279727346664268 -0.19417579502503934
| 11> C 1.5201273806386775 0.05196341151040868 0.12006271252453651
| 12> C 2.9734508824024934 -0.08063942806592773 0.11698886817630258
| 13> C 3.886112252492324 0.43426552237393057 -0.860559352349202
| 14> C 5.199638616280425 0.1431330089289044 -0.5641720591752298
| 15> S 5.347154151401848 -0.7387556861661363 0.8919447699815752
| 16> C 3.65151992391166 -0.7339627423414248 1.1291792738288122
| 17> C 0.696694841421373 -1.0399435614913304 0.41768638369944966
| 18> C -0.6952201285513783 -0.9037402911823028 0.40965698701960873
| 19> H -3.047156731248017 0.7381208653833694 2.2342102025686383
| 20> H -3.296258580924962 -0.9248561756971078 1.6889318083119453
| 21> H -4.535874388696007 0.29179137207789047 1.380755811178094
| 22> H -3.041647283351555 1.5547628021191875 -0.0762769589824961
| 23> H -4.149993780562913 -1.829093277028448 -1.6791918949652382
| 24> H -0.8939643506774299 2.385017597095849 -0.45101310359653013
| 25> H 1.5416123098575654 2.146197930021607 -0.4278933929273069
| 26> H 3.5913371865171886 0.9830097179372909 -1.7469437228253955
| 27> H 6.080798425745374 0.4060300247704545 -1.133041631782633
| 28> H 3.2410886801409258 -1.207890309295182 2.0105496578500004
| 29> H 1.1270304615348161 -2.0130883733408913 0.6427024115590727
| 30> H -1.3066562211167347 -1.775745344561848 0.6344658117862483
| 31> *
| 32>
| 33>                          ****END OF INPUT****

CARTESIAN COORDINATES (ANGSTROEM)
---------------------------------
  C     -3.453566    0.125664    1.421643
  C     -2.802608    0.494203    0.085685
  C     -3.428428   -0.237791   -1.088111
  O     -3.552938    0.204918   -2.220402
  O     -3.821613   -1.498330   -0.816477
  C     -1.293209    0.328256    0.106964
  C     -0.464644    1.416776   -0.200588
  C      0.927214    1.279727   -0.194176
  C      1.520127    0.051963    0.120063
  C      2.973451   -0.080639    0.116989
  C      3.886112    0.434266   -0.860559
  C      5.199639    0.143133   -0.564172
  S      5.347154   -0.738756    0.891945
  C      3.651520   -0.733963    1.129179
  C      0.696695   -1.039944    0.417686
  C     -0.695220   -0.903740    0.409657
  H     -3.047157    0.738121    2.234210
  H     -3.296259   -0.924856    1.688932
  H     -4.535874    0.291791    1.380756
  H     -3.041647    1.554763   -0.076277
  H     -4.149994   -1.829093   -1.679192
  H     -0.893964    2.385018   -0.451013
  H      1.541612    2.146198   -0.427893
  H      3.591337    0.983010   -1.746944
  H      6.080798    0.406030   -1.133042
  H      3.241089   -1.207890    2.010550
  H      1.127030   -2.013088    0.642702
  H     -1.306656   -1.775745    0.634466

 Total Charge           Charge          ....    0
 Multiplicity           Mult            ....    1
 Number of Electrons    NEL             ....  122
 Basis Dimension        Dim             ....  288

ORBITAL ENERGIES
----------------

  NO   OCC          E(Eh)            E(eV)
   0   2.0000     -91.950226     -2502.0929
   1   2.0000     -20.610853      -560.8498
   2   2.0000     -20.541767      -558.9699
   3   2.0000     -11.391214      -309.9707
   4   2.0000     -11.267550      -306.6056
   5   2.0000     -11.264360      -306.5188
   6   2.0000     -11.263912      -306.5066
   7   2.0000     -11.257059      -306.3201
   8   2.0000     -11.253646      -306.2273
   9   2.0000     -11.250908      -306.1528
  10   2.0000     -11.248111      -306.0767
  11   2.0000     -11.247973      -306.0729
  12   2.0000     -11.246599      -306.0355
  13   2.0000     -11.246361      -306.0290
  14   2.0000     -11.245487      -306.0053
  15   2.0000     -11.238279      -305.8091
  16   2.0000      -8.987149      -244.5528
  17   2.0000      -6.674669      -181.6270
  18   2.0000      -6.673582      -181.5974
  19   2.0000      -6.671908      -181.5519
  20   2.0000      -1.450993       -39.4835
  21   2.0000      -1.333205       -36.2783
  22   2.0000      -1.180697       -32.1284
  23   2.0000      -1.154328       -31.4109
  24   2.0000      -1.091362       -29.6975
  25   2.0000      -1.026189       -27.9240
  26   2.0000      -1.012564       -27.5533
  27   2.0000      -0.979136       -26.6436
  28   2.0000      -0.956551       -26.0291
  29   2.0000      -0.900158       -24.4945
  30   2.0000      -0.842377       -22.9223
  31   2.0000      -0.834593       -22.7104
  32   2.0000      -0.789781       -21.4910
  33   2.0000      -0.764383       -20.7999
  34   2.0000      -0.747212       -20.3327
  35   2.0000      -0.716781       -19.5046
  36   2.0000      -0.702815       -19.1246
  37   2.0000      -0.684598       -18.6289
  38   2.0000      -0.667110       -18.1530
  39   2.0000      -0.640868       -17.4389
  40   2.0000      -0.629284       -17.1237
  41   2.0000      -0.622502       -16.9391
  42   2.0000      -0.596523       -16.2322
  43   2.0000      -0.593294       -16.1443
  44   2.0000      -0.589219       -16.0335
  45   2.0000      -0.568239       -15.4626
  46   2.0000      -0.559081       -15.2134
  47   2.0000      -0.552165       -15.0252
  48   2.0000      -0.536866       -14.6089
  49   2.0000      -0.532230       -14.4827
  50   2.0000      -0.516825       -14.0635
  51   2.0000      -0.509485       -13.8638
  52   2.0000      -0.499648       -13.5961
  53   2.0000      -0.493531       -13.4297
  54   2.0000      -0.478290       -13.0149
  55   2.0000      -0.470395       -12.8001
  56   2.0000      -0.449698       -12.2369
  57   2.0000      -0.372897       -10.1471
  58   2.0000      -0.345546        -9.4028
  59   2.0000      -0.338369        -9.2075
  60   2.0000      -0.305712        -8.3189
  61   0.0000       0.096331         2.6213
  62   0.0000       0.117348         3.1932
  63   0.0000       0.129315         3.5188
  64   0.0000       0.171286         4.6609
  65   0.0000       0.178647         4.8612

MULLIKEN ATOMIC CHARGES
-----------------------
   0 C :    0.034369
   1 C :   -0.135682
   2 C :    0.502008
   3 O :   -0.414865
   4 O :   -0.354676
   5 C :   -0.140405
   6 C :   -0.006166
   7 C :   -0.021107
   8 C :   -0.019449
   9 C :   -0.059530
  10 C :   -0.006640
  11 C :   -0.107753
  12 S :    0.066321
  13 C :   -0.105802
  14 C :   -0.020114
  15 C :   -0.009595
  16 H :    0.045669
  17 H :    0.049822
  18 H :    0.038860
  19 H :    0.067236
  20 H :    0.227142
  21 H :    0.039141
  22 H :    0.039017
  23 H :    0.048371
  24 H :    0.080938
  25 H :    0.075946
  26 H :    0.038790
  27 H :    0.048157
Sum of atomic charges:    0.0000000

LOEWDIN ATOMIC CHARGES
----------------------
   0 C :   -0.018276
   1 C :   -0.040375
   2 C :    0.217585
   3 O :   -0.283607
   4 O :   -0.108547
   5 C :   -0.029194
   6 C :   -0.011742
   7 C :   -0.014399
   8 C :   -0.022657
   9 C :   -0.064127
  10 C :   -0.057912
  11 C :   -0.181975
  12 S :    0.411620
  13 C :   -0.184492
  14 C :   -0.013056
  15 C :   -0.015531
  16 H :    0.024592
  17 H :    0.021390
  18 H :    0.020530
  19 H :    0.040190
  20 H :    0.115872
  21 H :    0.028931
  22 H :    0.028944
  23 H :    0.029619
  24 H :    0.025467
  25 H :    0.023645
  26 H :    0.028779
  27 H :    0.028726

  Mayer bond orders larger than 0.100000
B(  0-C ,  1-C ) :   1.0267 B(  0-C , 16-H ) :   0.9839 B(  0-C , 17-H ) :   0.9742
B(  0-C , 18-H ) :   0.9864 B(  1-C ,  2-C ) :   0.9150 B(  1-C ,  5-C ) :   0.9893
B(  1-C , 19-H ) :   0.9632 B(  2-C ,  3-O ) :   2.0127 B(  2-C ,  4-O ) :   1.1189
B(  4-O , 20-H ) :   0.9409 B(  5-C ,  6-C ) :   1.4350 B(  5-C , 15-C ) :   1.3883
B(  6-C ,  7-C ) :   1.4380 B(  6-C , 21-H ) :   0.9991 B(  7-C ,  8-C ) :   1.4077
B(  7-C , 22-H ) :   1.0026 B(  8-C ,  9-C ) :   0.9940 B(  8-C , 14-C ) :   1.4093
B(  9-C , 10-C ) :   1.2409 B(  9-C , 13-C ) :   1.6224 B( 10-C , 11-C ) :   1.6290
B( 10-C , 23-H ) :   1.0022 B( 11-C , 12-S ) :   1.1633 B( 11-C , 24-H ) :   0.9775
B( 12-S , 13-C ) :   1.1586 B( 13-C , 25-H ) :   0.9793 B( 14-C , 15-C ) :   1.4433
B( 14-C , 26-H ) :   1.0039 B( 15-C , 27-H ) :   0.9993

FINAL SINGLE POINT ENERGY     -1045.927119270564

DIPOLE MOMENT
-------------
                                X             Y             Z
Electronic contribution:     10.95774      -2.23699      -2.52936
Nuclear contribution   :    -10.93505       2.07998       3.11078
                        -----------------------------------------
Total Dipole Moment    :      0.02269      -0.15701       0.58142
                        -----------------------------------------
Magnitude (a.u.)       :      0.60267
Magnitude (Debye)      :      1.53187

Rotational constants in cm-1:     0.050050     0.006017     0.005862
Rotational constants in MHz :  1500.468134   180.394705   175.746029

                             ****ORCA TERMINATED NORMALLY****
TOTAL RUN TIME: 0 days 0 hours 0 minutes 10 seconds 816 msec
