                         Program Version 5.0.3 -  RELEASE  -
|  1> !RHF def2-SVP TightSCF PAL16
|  2> *xyz 0 1
|  3> C -2.649762682417929 2.1029268623251807 0.3940581041424197
|  4> C -2.4419975487747227 0.6048109893928404 0.6980273896418104
|  5> C -2.8808068889315104 0.3301997125032737 2.167786399560461
|  6> C -4.389013239988973 0.34756898901458405 2.372672483003834
|  7> C -5.060992055776872 -0.6152483343547334 1.4308309007934974
|  8> O -6.108081594387768 -1.1913472626099517 1.71620903567034
|  9> C -4.469236317940989 -0.8057362900141835 0.08701111659784522
| 10> C -3.3079313912441495 -0.22774206599259145 -0.2697164855583911
| 11> C -2.808816757573154 -0.38382476726369413 -1.6937573356069495
| 12> C -1.3283516135083935 -0.7687043769814869 -1.7869253444548834
| 13> C -0.48911352689828097 0.20090520741283766 -0.9564242224047137
| 14> C 1.0366425223483011 0.09476658205716729 -1.0784960102683987
| 15> C 1.685274842721556 -0.4258224332223616 -2.3526559251621437
| 16> C 3.1675510669481683 -0.5838339535250358 -1.9609291453564521
| 17> C 3.24527654652773 -0.4895178183276207 -0.4135161400955925
| 18> C 3.929841845536209 0.8267739489259337 -0.01497360480872803
| 19> O 3.3057624555205742 1.8735577690576761 0.1760584287323882
| 20> C 5.4478622883647185 0.7853462977570381 0.13602847525866757
| 21> O 6.110847963991519 0.42701860011880693 -1.0598680505632596
| 22> C 1.7695293419595794 -0.6514925735773128 0.05580908930545993
| 23> C 1.4635886911782934 -2.1771282126916596 0.074989331744497
| 24> C 1.4096720823952809 -0.07207227400411108 1.4529765664499439
| 25> C 0.11012155818339636 0.7727406830193134 1.4596965682198413
| 26> O 0.37298298354643405 2.119215961305482 1.0754642769747362
| 27> C -0.9507184191448294 0.13689328271841492 0.5296015947157038
| 28> H -2.126408212241347 2.7344318956829268 1.1191080589176197
| 29> H -2.303012927636766 2.385921212110708 -0.6036467164712925
| 30> H -3.71029015411819 2.3767710234265875 0.4392240099856953
| 31> H -2.4311097391528005 1.0635695737405928 2.84778061598735
| 32> H -2.5088499535633857 -0.6546831556460968 2.4837345832694337
| 33> H -4.810363424800101 1.3452176148351551 2.2158905294674676
| 34> H -4.613885210255741 0.04101235652114003 3.4002500206950557
| 35> H -5.063808207719071 -1.4012741956426737 -0.5973754972435523
| 36> H -3.3967828781610265 -1.1327298205787353 -2.2388082295368803
| 37> H -2.964797577993365 0.5681553012890601 -2.217594689906008
| 38> H -1.1856688392292436 -1.7997508722543378 -1.4434665883708946
| 39> H -1.02803141531349 -0.7340892287101212 -2.840209504915147
| 40> H -0.7189420599672985 1.2000390680877633 -1.3507047313463556
| 41> H 1.3610881256360923 1.1447310692715535 -1.0369491334164127
| 42> H 1.5656207575161336 0.27155229425471167 -3.1881949926671735
| 43> H 1.2727847197899296 -1.3902690649419849 -2.6658441515662585
| 44> H 3.5393334357695085 -1.554774638962414 -2.307321398070317
| 45> H 3.7684936508062314 0.1884397136736118 -2.4533129315252697
| 46> H 3.8654521886592907 -1.2987662811103342 -0.008447221120272012
| 47> H 5.699515809615108 0.05916237256972223 0.9147767541027435
| 48> H 5.808056590871946 1.766025780769881 0.4629235112041492
| 49> H 6.027251216912817 1.182558848145977 -1.6697578584482586
| 50> H 2.0551012207549366 -2.6726714118837593 0.854450984715568
| 51> H 0.4141467294101332 -2.3942937613650743 0.28205363194661215
| 52> H 1.7131881273253209 -2.6745946790491915 -0.8669865300711899
| 53> H 1.2647763745573835 -0.9018743793418104 2.158026523860946
| 54> H 2.229419017319699 0.5119622630115721 1.8806744589351285
| 55> H -0.2467538882167608 0.8108763989032368 2.4927211518817844
| 56> H 1.3274876434213918 2.2226049632340956 0.8824690719541438
| 57> H -0.9731432726289843 -0.92476113773143 0.8145787712192447
| 58> *
| 59>
| 60>                          ****END OF INPUT****

CARTESIAN COORDINATES (ANGSTROEM)
---------------------------------
  C     -2.649763    2.102927    0.394058
  C     -2.441998    0.604811    0.698027
  C     -2.880807    0.330200    2.167786
  C     -4.389013    0.347569    2.372672
  C     -5.060992   -0.615248    1.430831
  O     -6.108082   -1.191347    1.716209
  C     -4.469236   -0.805736    0.087011
  C     -3.307931   -0.227742   -0.269716
  C     -2.808817   -0.383825   -1.693757
  C     -1.328352   -0.768704   -1.786925
  C     -0.489114    0.200905   -0.956424
  C      1.036643    0.094767   -1.078496
  C      1.685275   -0.425822   -2.352656
  C      3.167551   -0.583834   -1.960929
  C      3.245277   -0.489518   -0.413516
  C      3.929842    0.826774   -0.014974
  O      3.305762    1.873558    0.176058
  C      5.447862    0.785346    0.136028
  O      6.110848    0.427019   -1.059868
  C      1.769529   -0.651493    0.055809
  C      1.463589   -2.177128    0.074989
  C      1.409672   -0.072072    1.452977
  C      0.110122    0.772741    1.459697
  O      0.372983    2.119216    1.075464
  C     -0.950718    0.136893    0.529602
  H     -2.126408    2.734432    1.119108
  H     -2.303013    2.385921   -0.603647
  H     -3.710290    2.376771    0.439224
  H     -2.431110    1.063570    2.847781
  H     -2.508850   -0.654683    2.483735
  H     -4.810363    1.345218    2.215891
  H     -4.613885    0.041012    3.400250
  H     -5.063808   -1.401274   -0.597375
  H     -3.396783   -1.132730   -2.238808
  H     -2.964798    0.568155   -2.217595
  H     -1.185669   -1.799751   -1.443467
  H     -1.028031   -0.734089   -2.840210
  H     -0.718942    1.200039   -1.350705
  H      1.361088    1.144731   -1.036949
  H      1.565621    0.271552   -3.188195
  H      1.272785   -1.390269   -2.665844
  H      3.539333   -1.554775   -2.307321
  H      3.768494    0.188440   -2.453313
  H      3.865452   -1.298766   -0.008447
  H      5.699516    0.059162    0.914777
  H      5.808057    1.766026    0.462924
  H      6.027251    1.182559   -1.669758
  H      2.055101   -2.672671    0.854451
  H      0.414147   -2.394294    0.282054
  H      1.713188   -2.674595   -0.866987
  H      1.264776   -0.901874    2.158027
  H      2.229419    0.511962    1.880674
  H     -0.246754    0.810876    2.492721
  H      1.327488    2.222605    0.882469
  H     -0.973143   -0.924761    0.814579

 Total Charge           Charge          ....    0
 Multiplicity           Mult            ....    1
 Number of Electrons    NEL             ....  188
 Basis Dimension        Dim             ....  500

ORBITAL ENERGIES
----------------

  NO   OCC          E(Eh)            E(eV)
   0   2.0000     -20.585169      -560.1509
   1   2.0000     -20.573910      -559.8446
   2   2.0000     -20.531580      -558.6927
   3   2.0000     -20.516389      -558.2793
   4   2.0000     -11.358146      -309.0709
   5   2.0000     -11.312723      -307.8349
   6   2.0000     -11.312698      -307.8342
   7   2.0000     -11.281505      -306.9853
   8   2.0000     -11.260915      -306.4251
   9   2.0000     -11.256749      -306.3117
  10   2.0000     -11.254138      -306.2407
  11   2.0000     -11.252975      -306.2090
  12   2.0000     -11.245863      -306.0155
  13   2.0000     -11.236846      -305.7701
  14   2.0000     -11.236083      -305.7494
  15   2.0000     -11.235101      -305.7226
  16   2.0000     -11.233927      -305.6907
  17   2.0000     -11.232808      -305.6603
  18   2.0000     -11.230441      -305.5958
  19   2.0000     -11.229232      -305.5629
  20   2.0000     -11.228394      -305.5401
  21   2.0000     -11.228089      -305.5318
  22   2.0000     -11.224739      -305.4407
  23   2.0000     -11.223355      -305.4030
  24   2.0000     -11.219359      -305.2943
  25   2.0000      -1.394788       -37.9541
  26   2.0000      -1.370344       -37.2889
  27   2.0000      -1.339575       -36.4517
  28   2.0000      -1.325946       -36.0808
  29   2.0000      -1.165200       -31.7067
  30   2.0000      -1.143890       -31.1268
  31   2.0000      -1.079874       -29.3849
  32   2.0000      -1.059495       -28.8303
  33   2.0000      -1.035602       -28.1802
  34   2.0000      -1.021754       -27.8033
  35   2.0000      -1.001667       -27.2567
  36   2.0000      -0.981803       -26.7162
  37   2.0000      -0.966269       -26.2935
  38   2.0000      -0.939183       -25.5565
  39   2.0000      -0.926996       -25.2249
  40   2.0000      -0.898510       -24.4497
  41   2.0000      -0.863755       -23.5040
  42   2.0000      -0.839104       -22.8332
  43   2.0000      -0.816024       -22.2052
  44   2.0000      -0.810867       -22.0648
  45   2.0000      -0.777531       -21.1577
  46   2.0000      -0.762630       -20.7522
  47   2.0000      -0.753183       -20.4951
  48   2.0000      -0.734744       -19.9934
  49   2.0000      -0.707955       -19.2644
  50   2.0000      -0.688846       -18.7444
  51   2.0000      -0.681977       -18.5575
  52   2.0000      -0.672757       -18.3066
  53   2.0000      -0.662841       -18.0368
  54   2.0000      -0.657809       -17.8999
  55   2.0000      -0.652691       -17.7606
  56   2.0000      -0.640670       -17.4335
  57   2.0000      -0.638763       -17.3816
  58   2.0000      -0.633992       -17.2518
  59   2.0000      -0.626272       -17.0417
  60   2.0000      -0.619374       -16.8540
  61   2.0000      -0.607126       -16.5207
  62   2.0000      -0.597635       -16.2625
  63   2.0000      -0.591818       -16.1042
  64   2.0000      -0.574846       -15.6424
  65   2.0000      -0.572157       -15.5692
  66   2.0000      -0.565099       -15.3771
  67   2.0000      -0.562007       -15.2930
  68   2.0000      -0.558178       -15.1888
  69   2.0000      -0.554374       -15.0853
  70   2.0000      -0.548121       -14.9151
  71   2.0000      -0.542763       -14.7693
  72   2.0000      -0.534200       -14.5363
  73   2.0000      -0.527822       -14.3628
  74   2.0000      -0.523320       -14.2403
  75   2.0000      -0.515639       -14.0313
  76   2.0000      -0.510731       -13.8977
  77   2.0000      -0.506601       -13.7853
  78   2.0000      -0.501939       -13.6585
  79   2.0000      -0.496332       -13.5059
  80   2.0000      -0.490527       -13.3479
  81   2.0000      -0.487083       -13.2542
  82   2.0000      -0.484452       -13.1826
  83   2.0000      -0.477806       -13.0018
  84   2.0000      -0.471218       -12.8225
  85   2.0000      -0.462378       -12.5819
  86   2.0000      -0.457156       -12.4399
  87   2.0000      -0.448349       -12.2002
  88   2.0000      -0.426359       -11.6018
  89   2.0000      -0.421622       -11.4729
  90   2.0000      -0.414435       -11.2774
  91   2.0000      -0.402646       -10.9566
  92   2.0000      -0.389717       -10.6047
  93   2.0000      -0.354323        -9.6416
  94   0.0000       0.106711         2.9038
  95   0.0000       0.108290         2.9467
  96   0.0000       0.155571         4.2333
  97   0.0000       0.165707         4.5091
  98   0.0000       0.172150         4.6844

MULLIKEN ATOMIC CHARGES
-----------------------
   0 C :    0.121733
   1 C :   -0.419341
   2 C :    0.009112
   3 C :    0.036839
   4 C :    0.221399
   5 O :   -0.400853
   6 C :   -0.120306
   7 C :   -0.068812
   8 C :    0.125275
   9 C :    0.016870
  10 C :   -0.072873
  11 C :   -0.044215
  12 C :    0.053543
  13 C :    0.066650
  14 C :   -0.145614
  15 C :    0.219466
  16 O :   -0.419565
  17 C :    0.335362
  18 O :   -0.454656
  19 C :   -0.522549
  20 C :    0.096513
  21 C :    0.185962
  22 C :    0.216178
  23 O :   -0.476087
  24 C :   -0.058477
  25 H :    0.059176
  26 H :    0.028640
  27 H :    0.022082
  28 H :    0.047644
  29 H :    0.033589
  30 H :    0.065191
  31 H :    0.056139
  32 H :    0.040631
  33 H :    0.034383
  34 H :    0.043793
  35 H :    0.022167
  36 H :    0.034507
  37 H :    0.036875
  38 H :    0.052565
  39 H :    0.031779
  40 H :    0.032914
  41 H :    0.046030
  42 H :    0.028980
  43 H :    0.045546
  44 H :    0.051068
  45 H :    0.045731
  46 H :    0.207594
  47 H :    0.030211
  48 H :    0.039609
  49 H :    0.027608
  50 H :    0.025075
  51 H :    0.030088
  52 H :    0.021446
  53 H :    0.233101
  54 H :    0.024281
Sum of atomic charges:    0.0000000

LOEWDIN ATOMIC CHARGES
----------------------
   0 C :   -0.013360
   1 C :   -0.039169
   2 C :   -0.005837
   3 C :   -0.033462
   4 C :    0.148783
   5 O :   -0.261550
   6 C :   -0.099192
   7 C :    0.038869
   8 C :   -0.002450
   9 C :   -0.009682
  10 C :   -0.014772
  11 C :   -0.023391
  12 C :   -0.008711
  13 C :    0.008500
  14 C :   -0.040831
  15 C :    0.169886
  16 O :   -0.249010
  17 C :    0.108511
  18 O :   -0.182220
  19 C :   -0.039901
  20 C :   -0.018565
  21 C :   -0.013457
  22 C :    0.117957
  23 O :   -0.203236
  24 C :   -0.016637
  25 H :    0.026267
  26 H :    0.014476
  27 H :    0.012483
  28 H :    0.018616
  29 H :    0.013499
  30 H :    0.034462
  31 H :    0.033763
  32 H :    0.030548
  33 H :    0.022922
  34 H :    0.025919
  35 H :    0.009006
  36 H :    0.015038
  37 H :    0.018195
  38 H :    0.020528
  39 H :    0.015334
  40 H :    0.008740
  41 H :    0.022568
  42 H :    0.013093
  43 H :    0.021551
  44 H :    0.027337
  45 H :    0.015202
  46 H :    0.094158
  47 H :    0.015894
  48 H :    0.015052
  49 H :    0.013992
  50 H :    0.016993
  51 H :    0.013464
  52 H :    0.004241
  53 H :    0.079219
  54 H :    0.010367

  Mayer bond orders larger than 0.100000
B(  0-C ,  1-C ) :   0.9760 B(  0-C , 25-H ) :   0.9788 B(  0-C , 26-H ) :   0.9818
B(  0-C , 27-H ) :   0.9820 B(  1-C ,  2-C ) :   1.0048 B(  1-C ,  7-C ) :   0.9183
B(  1-C , 24-C ) :   1.0067 B(  2-C ,  3-C ) :   1.0335 B(  2-C , 28-H ) :   0.9683
B(  2-C , 29-H ) :   0.9717 B(  3-C ,  4-C ) :   0.9771 B(  3-C , 30-H ) :   0.9574
B(  3-C , 31-H ) :   0.9663 B(  4-C ,  5-O ) :   1.9880 B(  4-C ,  6-C ) :   1.0097
B(  6-C ,  7-C ) :   1.8472 B(  6-C , 32-H ) :   0.9992 B(  7-C ,  8-C ) :   0.9953
B(  8-C ,  9-C ) :   1.0488 B(  8-C , 33-H ) :   0.9719 B(  8-C , 34-H ) :   0.9570
B(  9-C , 10-C ) :   1.0211 B(  9-C , 35-H ) :   0.9613 B(  9-C , 36-H ) :   0.9657
B( 10-C , 11-C ) :   1.0154 B( 10-C , 24-C ) :   0.9714 B( 10-C , 37-H ) :   0.9539
B( 11-C , 12-C ) :   1.0319 B( 11-C , 19-C ) :   0.9410 B( 11-C , 38-H ) :   0.9456
B( 12-C , 13-C ) :   1.0577 B( 12-C , 39-H ) :   0.9695 B( 12-C , 40-H ) :   0.9599
B( 13-C , 14-C ) :   1.0021 B( 13-C , 41-H ) :   0.9710 B( 13-C , 42-H ) :   0.9683
B( 14-C , 15-C ) :   0.9105 B( 14-C , 19-C ) :   0.9655 B( 14-C , 43-H ) :   0.9608
B( 15-C , 16-O ) :   1.9492 B( 15-C , 17-C ) :   0.9734 B( 17-C , 18-O ) :   0.9247
B( 17-C , 44-H ) :   0.9617 B( 17-C , 45-H ) :   0.9819 B( 18-O , 46-H ) :   0.9653
B( 19-C , 20-C ) :   0.9989 B( 19-C , 21-C ) :   0.9439 B( 20-C , 47-H ) :   0.9790
B( 20-C , 48-H ) :   0.9874 B( 20-C , 49-H ) :   0.9849 B( 21-C , 22-C ) :   1.0596
B( 21-C , 50-H ) :   0.9715 B( 21-C , 51-H ) :   0.9580 B( 22-C , 23-O ) :   0.9507
B( 22-C , 24-C ) :   0.9762 B( 22-C , 52-H ) :   0.9733 B( 23-O , 53-H ) :   0.9419
B( 24-C , 54-H ) :   0.9474

FINAL SINGLE POINT ENERGY     -1111.289870061685

DIPOLE MOMENT
-------------
                                X             Y             Z
Electronic contribution:     -3.15995       2.91564       3.92227
Nuclear contribution   :      5.88279      -2.89123      -4.69899
                        -----------------------------------------
Total Dipole Moment    :      2.72285       0.02441      -0.77672
                        -----------------------------------------
Magnitude (a.u.)       :      2.83157
Magnitude (Debye)      :      7.19728

Rotational constants in cm-1:     0.019253     0.003916     0.003656
Rotational constants in MHz :   577.199155   117.385572   109.608039

                             ****ORCA TERMINATED NORMALLY****
TOTAL RUN TIME: 0 days 0 hours 0 minutes 58 seconds 536 msec
