                         Program Version 5.0.3 -  RELEASE  -
|  1> !RHF def2-SVP TightSCF PAL16
|  2> *xyz 0 1
|  3> C 6.511324410915932 -1.9267004801762218 1.2742316128398743
|  4> C 5.260719519275526 -1.979289409983321 0.4224662583688506
|  5> O 4.989875394776358 -3.005709710355988 -0.19942755889232114
|  6> C 4.439852327324753 -0.7813898328996361 0.4027953038984516
|  7> C 4.565140735698542 0.4507109649909836 1.0211187855529913
|  8> C 3.4415723960562508 1.2323866225892315 0.6290980504813601
|  9> C 2.980974035791474 2.532042203713761 0.9033109787748981
| 10> C 1.7875827488487894 2.96144656376536 0.30357499738632854
| 11> C 1.060995013232069 2.123074947514424 -0.5524566261797231
| 12> C 1.4926506998529294 0.8188313999001804 -0.8335959920865748
| 13> O 0.866931146395194 -0.06382360340301557 -1.6668158633159171
| 14> C -0.563226830478504 0.00455502414259136 -1.7582143720601637
| 15> C -1.228125938907711 -0.5520799350983568 -0.4854362129762353
| 16> O -0.8456271340611066 -1.9258527275951849 -0.3232583999456838
| 17> C -2.7665599632603217 -0.42296631863584133 -0.5873031009539693
| 18> N -3.4495539421504526 -0.8605287067118959 0.6379810219618667
| 19> C -4.864871048900141 -0.49261136286017027 0.7563192232291108
| 20> C -5.702314659103299 -0.8919977286763369 -0.46152246282170767
| 21> C -5.046969079115573 0.9922169500362068 1.0854626949681996
| 22> C 2.6927787844072477 0.42735622310729926 -0.22073862094238622
| 23> O 3.2947215031786783 -0.7921096664118628 -0.3502151728083637
| 24> H 7.04857280767998 -2.8825625173758858 1.2076604788674152
| 25> H 7.176808549725887 -1.1314634503943422 0.917371798844945
| 26> H 6.241375340322335 -1.7639925598506458 2.3251354758131093
| 27> H 5.367217834844129 0.7561188116213671 1.680403084221536
| 28> H 3.5372570533955487 3.1947091170917123 1.5605198298674763
| 29> H 1.4244527045465452 3.970050766459467 0.49869506432369015
| 30> H 0.1600563956096156 2.5281291373126225 -1.0067088974871337
| 31> H -0.9077890018696813 1.0137724357942415 -2.0124088211531634
| 32> H -0.8297142787595106 -0.6343831191184144 -2.6085478090334875
| 33> H -0.871226666642513 -0.016533095466642087 0.4020654515069705
| 34> H 0.12678034617710815 -1.958058598049398 -0.41739467875757985
| 35> H -3.007877874699542 0.6244193008144381 -0.8044628285211309
| 36> H -3.1132307560539507 -1.0404236841706822 -1.4245915405331766
| 37> H -2.92850665299773 -0.5807941950424673 1.4666226034983485
| 38> H -5.255882735670976 -1.0594460996124355 1.6122237074010886
| 39> H -5.574261392889184 -1.9574989183226834 -0.6898271317318705
| 40> H -6.76872853619353 -0.7215848339354811 -0.2645812087521473
| 41> H -5.436114578477912 -0.31261844292055974 -1.354687508668825
| 42> H -4.7348346519628155 1.6405277467670787 0.255007547066987
| 43> H -4.4683241191115295 1.2731089945588092 1.975065269125351
| 44> H -6.103899906744887 1.2109617869003022 1.2946590901253139
| 45> *
| 46>
| 47>                          ****END OF INPUT****

CARTESIAN COORDINATES (ANGSTROEM)
---------------------------------
  C      6.511324   -1.926700    1.274232
  C      5.260720   -1.979289    0.422466
  O      4.989875   -3.005710   -0.199428
  C      4.439852   -0.781390    0.402795
  C      4.565141    0.450711    1.021119
  C      3.441572    1.232387    0.629098
  C      2.980974    2.532042    0.903311
  C      1.787583    2.961447    0.303575
  C      1.060995    2.123075   -0.552457
  C      1.492651    0.818831   -0.833596
  O      0.866931   -0.063824   -1.666816
  C     -0.563227    0.004555   -1.758214
  C     -1.228126   -0.552080   -0.485436
  O     -0.845627   -1.925853   -0.323258
  C     -2.766560   -0.422966   -0.587303
  N     -3.449554   -0.860529    0.637981
  C     -4.864871   -0.492611    0.756319
  C     -5.702315   -0.891998   -0.461522
  C     -5.046969    0.992217    1.085463
  C      2.692779    0.427356   -0.220739
  O      3.294722   -0.792110   -0.350215
  H      7.048573   -2.882563    1.207660
  H      7.176809   -1.131463    0.917372
  H      6.241375   -1.763993    2.325135
  H      5.367218    0.756119    1.680403
  H      3.537257    3.194709    1.560520
  H      1.424453    3.970051    0.498695
  H      0.160056    2.528129   -1.006709
  H     -0.907789    1.013772   -2.012409
  H     -0.829714   -0.634383   -2.608548
  H     -0.871227   -0.016533    0.402065
  H      0.126780   -1.958059   -0.417395
  H     -3.007878    0.624419   -0.804463
  H     -3.113231   -1.040424   -1.424592
  H     -2.928507   -0.580794    1.466623
  H     -5.255883   -1.059446    1.612224
  H     -5.574261   -1.957499   -0.689827
  H     -6.768729   -0.721585   -0.264581
  H     -5.436115   -0.312618   -1.354688
  H     -4.734835    1.640528    0.255008
  H     -4.468324    1.273109    1.975065
  H     -6.103900    1.210962    1.294659

 Total Charge           Charge          ....    0
 Multiplicity           Mult            ....    1
 Number of Electrons    NEL             ....  156
 Basis Dimension        Dim             ....  399

ORBITAL ENERGIES
----------------

  NO   OCC          E(Eh)            E(eV)
   0   2.0000     -20.627252      -561.2961
   1   2.0000     -20.594133      -560.3948
   2   2.0000     -20.550001      -559.1940
   3   2.0000     -20.539116      -558.8978
   4   2.0000     -15.530959      -422.6189
   5   2.0000     -11.348483      -308.8079
   6   2.0000     -11.327562      -308.2386
   7   2.0000     -11.322973      -308.1138
   8   2.0000     -11.314216      -307.8755
   9   2.0000     -11.301849      -307.5389
  10   2.0000     -11.289460      -307.2018
  11   2.0000     -11.275935      -306.8338
  12   2.0000     -11.263130      -306.4853
  13   2.0000     -11.261230      -306.4337
  14   2.0000     -11.260014      -306.4006
  15   2.0000     -11.259493      -306.3864
  16   2.0000     -11.257901      -306.3431
  17   2.0000     -11.254479      -306.2499
  18   2.0000     -11.249494      -306.1143
  19   2.0000     -11.220671      -305.3300
  20   2.0000     -11.220309      -305.3201
  21   2.0000      -1.461512       -39.7698
  22   2.0000      -1.407096       -38.2890
  23   2.0000      -1.366221       -37.1768
  24   2.0000      -1.325926       -36.0803
  25   2.0000      -1.188349       -32.3366
  26   2.0000      -1.163006       -31.6470
  27   2.0000      -1.100270       -29.9399
  28   2.0000      -1.045425       -28.4474
  29   2.0000      -1.043924       -28.4066
  30   2.0000      -1.022227       -27.8162
  31   2.0000      -0.991816       -26.9887
  32   2.0000      -0.985280       -26.8108
  33   2.0000      -0.924608       -25.1599
  34   2.0000      -0.916138       -24.9294
  35   2.0000      -0.888203       -24.1692
  36   2.0000      -0.841320       -22.8935
  37   2.0000      -0.830602       -22.6018
  38   2.0000      -0.804001       -21.8780
  39   2.0000      -0.769856       -20.9489
  40   2.0000      -0.766484       -20.8571
  41   2.0000      -0.737887       -20.0789
  42   2.0000      -0.711899       -19.3718
  43   2.0000      -0.703285       -19.1373
  44   2.0000      -0.680394       -18.5145
  45   2.0000      -0.675385       -18.3782
  46   2.0000      -0.666788       -18.1442
  47   2.0000      -0.662395       -18.0247
  48   2.0000      -0.656518       -17.8648
  49   2.0000      -0.642861       -17.4931
  50   2.0000      -0.623845       -16.9757
  51   2.0000      -0.617340       -16.7987
  52   2.0000      -0.611028       -16.6269
  53   2.0000      -0.609155       -16.5760
  54   2.0000      -0.606100       -16.4928
  55   2.0000      -0.598510       -16.2863
  56   2.0000      -0.581404       -15.8208
  57   2.0000      -0.563925       -15.3452
  58   2.0000      -0.560247       -15.2451
  59   2.0000      -0.558239       -15.1904
  60   2.0000      -0.556859       -15.1529
  61   2.0000      -0.544982       -14.8297
  62   2.0000      -0.542042       -14.7497
  63   2.0000      -0.529425       -14.4064
  64   2.0000      -0.526470       -14.3260
  65   2.0000      -0.517811       -14.0904
  66   2.0000      -0.508404       -13.8344
  67   2.0000      -0.499332       -13.5875
  68   2.0000      -0.494698       -13.4614
  69   2.0000      -0.487881       -13.2759
  70   2.0000      -0.472552       -12.8588
  71   2.0000      -0.465746       -12.6736
  72   2.0000      -0.442563       -12.0428
  73   2.0000      -0.435840       -11.8598
  74   2.0000      -0.412544       -11.2259
  75   2.0000      -0.354745        -9.6531
  76   2.0000      -0.338255        -9.2044
  77   2.0000      -0.316529        -8.6132
  78   0.0000       0.050643         1.3781
  79   0.0000       0.130282         3.5451
  80   0.0000       0.147764         4.0209
  81   0.0000       0.160896         4.3782
  82   0.0000       0.170909         4.6507

MULLIKEN ATOMIC CHARGES
-----------------------
   0 C :   -0.038540
   1 C :    0.201579
   2 O :   -0.351715
   3 C :    0.160982
   4 C :   -0.004497
   5 C :   -0.077089
   6 C :   -0.017502
   7 C :   -0.018960
   8 C :   -0.121826
   9 C :    0.259271
  10 O :   -0.567370
  11 C :    0.283345
  12 C :    0.134726
  13 O :   -0.456825
  14 C :    0.210523
  15 N :   -0.471914
  16 C :   -0.010217
  17 C :   -0.021662
  18 C :   -0.006054
  19 C :    0.280437
  20 O :   -0.448195
  21 H :    0.075987
  22 H :    0.062735
  23 H :    0.063145
  24 H :    0.053270
  25 H :    0.037020
  26 H :    0.048892
  27 H :    0.046196
  28 H :    0.032249
  29 H :    0.056863
  30 H :    0.023392
  31 H :    0.212647
  32 H :   -0.002235
  33 H :    0.037015
  34 H :    0.126324
  35 H :    0.030657
  36 H :    0.051350
  37 H :    0.033384
  38 H :    0.023746
  39 H :    0.020025
  40 H :    0.022978
  41 H :    0.025863
Sum of atomic charges:   -0.0000000

LOEWDIN ATOMIC CHARGES
----------------------
   0 C :   -0.050227
   1 C :    0.136036
   2 O :   -0.218628
   3 C :    0.039422
   4 C :   -0.022473
   5 C :   -0.058569
   6 C :   -0.028975
   7 C :   -0.021924
   8 C :   -0.063821
   9 C :    0.074448
  10 O :   -0.189672
  11 C :    0.127961
  12 C :    0.092678
  13 O :   -0.196344
  14 C :    0.059898
  15 N :   -0.154393
  16 C :    0.036269
  17 C :   -0.034767
  18 C :   -0.047630
  19 C :    0.077925
  20 O :   -0.084562
  21 H :    0.041842
  22 H :    0.034870
  23 H :    0.035475
  24 H :    0.035827
  25 H :    0.028595
  26 H :    0.032052
  27 H :    0.030754
  28 H :    0.006445
  29 H :    0.027891
  30 H :    0.000441
  31 H :    0.088407
  32 H :   -0.009111
  33 H :    0.016380
  34 H :    0.051700
  35 H :    0.012558
  36 H :    0.024049
  37 H :    0.020013
  38 H :    0.011960
  39 H :    0.010046
  40 H :    0.011135
  41 H :    0.016020

  Mayer bond orders larger than 0.100000
B(  0-C ,  1-C ) :   1.0332 B(  0-C , 21-H ) :   0.9779 B(  0-C , 22-H ) :   0.9695
B(  0-C , 23-H ) :   0.9695 B(  1-C ,  2-O ) :   2.0671 B(  1-C ,  3-C ) :   0.9278
B(  3-C ,  4-C ) :   1.6756 B(  3-C , 20-O ) :   1.0105 B(  4-C ,  5-C ) :   1.1555
B(  4-C , 24-H ) :   0.9954 B(  5-C ,  6-C ) :   1.2817 B(  5-C , 19-C ) :   1.3607
B(  6-C ,  7-C ) :   1.5032 B(  6-C , 25-H ) :   1.0075 B(  7-C ,  8-C ) :   1.3361
B(  7-C , 26-H ) :   0.9986 B(  8-C ,  9-C ) :   1.4284 B(  8-C , 27-H ) :   1.0067
B(  9-C , 10-O ) :   1.0094 B(  9-C , 19-C ) :   1.3449 B( 10-O , 11-C ) :   0.8430
B( 11-C , 12-C ) :   1.0178 B( 11-C , 28-H ) :   0.9791 B( 11-C , 29-H ) :   0.9662
B( 12-C , 13-O ) :   0.9398 B( 12-C , 14-C ) :   1.0263 B( 12-C , 30-H ) :   0.9549
B( 13-O , 31-H ) :   0.9590 B( 14-C , 15-N ) :   0.9585 B( 14-C , 32-H ) :   0.9638
B( 14-C , 33-H ) :   0.9549 B( 15-N , 16-C ) :   0.9679 B( 15-N , 34-H ) :   0.9575
B( 16-C , 17-C ) :   1.0291 B( 16-C , 18-C ) :   1.0112 B( 16-C , 35-H ) :   0.9724
B( 17-C , 36-H ) :   0.9831 B( 17-C , 37-H ) :   0.9856 B( 17-C , 38-H ) :   0.9781
B( 18-C , 39-H ) :   0.9776 B( 18-C , 40-H ) :   0.9851 B( 18-C , 41-H ) :   0.9810
B( 19-C , 20-O ) :   1.0151

FINAL SINGLE POINT ENERGY      -971.234387075241

DIPOLE MOMENT
-------------
                                X             Y             Z
Electronic contribution:     33.73776      -2.67641      -3.63950
Nuclear contribution   :    -33.54672       5.21825       4.58051
                        -----------------------------------------
Total Dipole Moment    :      0.19103       2.54184       0.94102
                        -----------------------------------------
Magnitude (a.u.)       :      2.71716
Magnitude (Debye)      :      6.90647

Rotational constants in cm-1:     0.018957     0.004136     0.003723
Rotational constants in MHz :   568.314516   123.987753   111.600293

                             ****ORCA TERMINATED NORMALLY****
TOTAL RUN TIME: 0 days 0 hours 0 minutes 20 seconds 772 msec
