                         Program Version 5.0.3 -  RELEASE  -
|  1> !RHF def2-SVP TightSCF PAL16
|  2> *xyz 0 1
|  3> C 1.5685193739102472 2.8098590350207124 0.6718913801981129
|  4> C 1.3186642886694753 1.671036384980215 0.3809773668939875
|  5> C 1.0197585624273484 0.2702182793026259 0.019594784226587683
|  6> O 0.9498668832085777 0.14317591389723971 -1.4102427847799264
|  7> C 2.1102614906696986 -0.17932456490756013 -2.011894328390989
|  8> N 1.924865317647379 -0.26427617214782695 -3.3483779087134886
|  9> O 3.187131331682138 -0.37742195818443647 -1.4744964426620104
| 10> C -0.322065278237474 -0.16612864306448305 0.5902417811889773
| 11> C -1.5316027483307677 0.32176965770683635 0.06545488676452405
| 12> C -2.7557589037870076 -0.07808095517800245 0.6042020408283983
| 13> C -2.788643528261589 -0.9672505032561675 1.6761178798448237
| 14> C -1.598829950915704 -1.4557796906472067 2.211982014282569
| 15> C -0.3728726715629455 -1.0571314556949645 1.6750269692857427
| 16> H 1.7913708395745251 3.819168784057709 0.9304512328012144
| 17> H 1.7946586594769205 -0.3923816682447468 0.4260083781029062
| 18> H 2.7128492836773295 -0.4809101161556387 -3.939487726763685
| 19> H 1.018491551646118 -0.0724886792370734 -3.74537391448732
| 20> H -1.5211746660999068 1.0207674072789508 -0.7686145629989605
| 21> H -3.683147020101987 0.30673407133545033 0.1882129228221171
| 22> H -3.741838997963232 -1.2774789658836907 2.0960188395417916
| 23> H -1.6248906567235695 -2.146767301963404 3.050727218675383
| 24> H 0.5443868393939599 -1.4473088590066212 2.111579973342779
| 25> *
| 26>
| 27>                          ****END OF INPUT****

CARTESIAN COORDINATES (ANGSTROEM)
---------------------------------
  C      1.568519    2.809859    0.671891
  C      1.318664    1.671036    0.380977
  C      1.019759    0.270218    0.019595
  O      0.949867    0.143176   -1.410243
  C      2.110261   -0.179325   -2.011894
  N      1.924865   -0.264276   -3.348378
  O      3.187131   -0.377422   -1.474496
  C     -0.322065   -0.166129    0.590242
  C     -1.531603    0.321770    0.065455
  C     -2.755759   -0.078081    0.604202
  C     -2.788644   -0.967251    1.676118
  C     -1.598830   -1.455780    2.211982
  C     -0.372873   -1.057131    1.675027
  H      1.791371    3.819169    0.930451
  H      1.794659   -0.392382    0.426008
  H      2.712849   -0.480910   -3.939488
  H      1.018492   -0.072489   -3.745374
  H     -1.521175    1.020767   -0.768615
  H     -3.683147    0.306734    0.188213
  H     -3.741839   -1.277479    2.096019
  H     -1.624891   -2.146767    3.050727
  H      0.544387   -1.447309    2.111580

 Total Charge           Charge          ....    0
 Multiplicity           Mult            ....    1
 Number of Electrons    NEL             ....   92
 Basis Dimension        Dim             ....  227

ORBITAL ENERGIES
----------------

  NO   OCC          E(Eh)            E(eV)
   0   2.0000     -20.608847      -560.7952
   1   2.0000     -20.519612      -558.3670
   2   2.0000     -15.588646      -424.1886
   3   2.0000     -11.411622      -310.5260
   4   2.0000     -11.334986      -308.4406
   5   2.0000     -11.256558      -306.3065
   6   2.0000     -11.248691      -306.0924
   7   2.0000     -11.246256      -306.0262
   8   2.0000     -11.245059      -305.9936
   9   2.0000     -11.244309      -305.9732
  10   2.0000     -11.243681      -305.9561
  11   2.0000     -11.243473      -305.9504
  12   2.0000     -11.239590      -305.8448
  13   2.0000      -1.459847       -39.7245
  14   2.0000      -1.342399       -36.5285
  15   2.0000      -1.206151       -32.8210
  16   2.0000      -1.151946       -31.3460
  17   2.0000      -1.070360       -29.1260
  18   2.0000      -1.012285       -27.5457
  19   2.0000      -1.009670       -27.4745
  20   2.0000      -0.948301       -25.8046
  21   2.0000      -0.841095       -22.8874
  22   2.0000      -0.822142       -22.3716
  23   2.0000      -0.806629       -21.9495
  24   2.0000      -0.757871       -20.6227
  25   2.0000      -0.735651       -20.0181
  26   2.0000      -0.723868       -19.6975
  27   2.0000      -0.698148       -18.9976
  28   2.0000      -0.685968       -18.6661
  29   2.0000      -0.650735       -17.7074
  30   2.0000      -0.642300       -17.4779
  31   2.0000      -0.631387       -17.1809
  32   2.0000      -0.609418       -16.5831
  33   2.0000      -0.596312       -16.2265
  34   2.0000      -0.592310       -16.1176
  35   2.0000      -0.555736       -15.1224
  36   2.0000      -0.515490       -14.0272
  37   2.0000      -0.506806       -13.7909
  38   2.0000      -0.500962       -13.6319
  39   2.0000      -0.482773       -13.1369
  40   2.0000      -0.457373       -12.4458
  41   2.0000      -0.425206       -11.5704
  42   2.0000      -0.406637       -11.0652
  43   2.0000      -0.398327       -10.8390
  44   2.0000      -0.344053        -9.3622
  45   2.0000      -0.338716        -9.2169
  46   0.0000       0.115215         3.1352
  47   0.0000       0.124526         3.3885
  48   0.0000       0.173738         4.7276
  49   0.0000       0.181981         4.9520
  50   0.0000       0.196731         5.3533

MULLIKEN ATOMIC CHARGES
-----------------------
   0 C :   -0.377990
   1 C :    0.148110
   2 C :    0.451091
   3 O :   -0.539637
   4 C :    0.611053
   5 N :   -0.305546
   6 O :   -0.458614
   7 C :   -0.156544
   8 C :    0.016587
   9 C :   -0.040000
  10 C :   -0.031142
  11 C :   -0.039440
  12 C :   -0.019452
  13 H :    0.079562
  14 H :    0.097222
  15 H :    0.176351
  16 H :    0.170683
  17 H :    0.046029
  18 H :    0.043759
  19 H :    0.043898
  20 H :    0.044073
  21 H :    0.039948
Sum of atomic charges:    0.0000000

LOEWDIN ATOMIC CHARGES
----------------------
   0 C :   -0.052720
   1 C :   -0.039558
   2 C :    0.139600
   3 O :   -0.176684
   4 C :    0.220489
   5 N :   -0.046416
   6 O :   -0.327557
   7 C :   -0.035391
   8 C :   -0.003442
   9 C :   -0.023336
  10 C :   -0.020655
  11 C :   -0.023737
  12 C :   -0.017776
  13 H :    0.043722
  14 H :    0.044472
  15 H :    0.091081
  16 H :    0.085599
  17 H :    0.030119
  18 H :    0.028204
  19 H :    0.027607
  20 H :    0.028637
  21 H :    0.027741

  Mayer bond orders larger than 0.100000
B(  0-C ,  1-C ) :   2.8980 B(  0-C , 13-H ) :   1.0337 B(  1-C ,  2-C ) :   0.9112
B(  2-C ,  3-O ) :   0.8116 B(  2-C ,  7-C ) :   1.0195 B(  2-C , 14-H ) :   0.9670
B(  3-O ,  4-C ) :   1.0565 B(  4-C ,  5-N ) :   1.1970 B(  4-C ,  6-O ) :   1.9260
B(  5-N , 15-H ) :   0.9523 B(  5-N , 16-H ) :   0.9480 B(  7-C ,  8-C ) :   1.3883
B(  7-C , 12-C ) :   1.4448 B(  8-C ,  9-C ) :   1.4390 B(  8-C , 17-H ) :   0.9995
B(  9-C , 10-C ) :   1.4015 B(  9-C , 18-H ) :   1.0009 B( 10-C , 11-C ) :   1.4258
B( 10-C , 19-H ) :   0.9993 B( 11-C , 12-C ) :   1.4199 B( 11-C , 20-H ) :   0.9987
B( 12-C , 21-H ) :   0.9970

FINAL SINGLE POINT ENERGY      -587.617061054789

DIPOLE MOMENT
-------------
                                X             Y             Z
Electronic contribution:      3.90306       1.02582      -1.85643
Nuclear contribution   :     -4.89720      -0.92052       1.33319
                        -----------------------------------------
Total Dipole Moment    :     -0.99414       0.10529      -0.52325
                        -----------------------------------------
Magnitude (a.u.)       :      1.12836
Magnitude (Debye)      :      2.86805

Rotational constants in cm-1:     0.047027     0.015816     0.014436
Rotational constants in MHz :  1409.843261   474.150574   432.784873

                             ****ORCA TERMINATED NORMALLY****
TOTAL RUN TIME: 0 days 0 hours 0 minutes 6 seconds 406 msec
