                         Program Version 5.0.3 -  RELEASE  -
|  1> !RHF def2-SVP TightSCF PAL16
|  2> *xyz 0 1
|  3> O 0.4862508449998999 1.45594495258763 -2.623716035223008
|  4> C 0.4699996966505094 0.5984954089505059 -1.7356949312842962
|  5> C 1.4447591557353332 0.7132104684491808 -0.6055293084663552
|  6> C 1.7216518995628676 -0.33932035474050076 0.27361188827013283
|  7> C 2.6433319127253245 -0.16744604099554267 1.3108736219446737
|  8> C 3.2980833836773726 1.0519866904608208 1.4736762752454398
|  9> C 3.0365892652597717 2.103153231718684 0.5983832341646139
| 10> C 2.1158561077312035 1.9344277119776643 -0.4378517033680338
| 11> C -0.5268502995292099 -0.5687689739667445 -1.8029820129387186
| 12> O 0.15603009841635493 -1.8006523182887848 -2.0246141255987675
| 13> C -1.4729730326978285 -0.6345840481110289 -0.6143988973488664
| 14> C -2.188249731770778 0.5114955304166499 -0.22454687016148694
| 15> C -3.072492037649409 0.46997289149043964 0.8553524167497916
| 16> C -3.2651520058033006 -0.7189659042904084 1.5541218379298118
| 17> C -2.579372783140809 -1.8684708495822793 1.169967908973056
| 18> C -1.694451351940441 -1.828397928346706 0.09034711233296092
| 19> H 1.2432335826534233 -1.3087455465586026 0.17302548337586426
| 20> H 2.8507485261971586 -0.9898023303848534 1.9916160669433942
| 21> H 4.0142401668239485 1.1815298680257764 2.2813745279531648
| 22> H 3.5482806409422434 3.054576043461939 0.7201278280787181
| 23> H 1.9229187973157067 2.7651592068852033 -1.1144761103994114
| 24> H -1.1589555407950765 -0.4070103419044219 -2.686488175408766
| 25> H 0.5513585269910606 -1.7313658062496735 -2.9121456149939413
| 26> H -2.0646843077946504 1.450538269534948 -0.762283071386612
| 27> H -3.613944454210375 1.365931802860124 1.148225357579923
| 28> H -3.95453531003921 -0.7515358680851755 2.3935814028923104
| 29> H -2.735250338167503 -2.7999809593708767 1.7079348446057818
| 30> H -1.1764214121435492 -2.7413748059442176 -0.1974929504622254
| 31> *
| 32>
| 33>                          ****END OF INPUT****

CARTESIAN COORDINATES (ANGSTROEM)
---------------------------------
  O      0.486251    1.455945   -2.623716
  C      0.470000    0.598495   -1.735695
  C      1.444759    0.713210   -0.605529
  C      1.721652   -0.339320    0.273612
  C      2.643332   -0.167446    1.310874
  C      3.298083    1.051987    1.473676
  C      3.036589    2.103153    0.598383
  C      2.115856    1.934428   -0.437852
  C     -0.526850   -0.568769   -1.802982
  O      0.156030   -1.800652   -2.024614
  C     -1.472973   -0.634584   -0.614399
  C     -2.188250    0.511496   -0.224547
  C     -3.072492    0.469973    0.855352
  C     -3.265152   -0.718966    1.554122
  C     -2.579373   -1.868471    1.169968
  C     -1.694451   -1.828398    0.090347
  H      1.243234   -1.308746    0.173025
  H      2.850749   -0.989802    1.991616
  H      4.014240    1.181530    2.281375
  H      3.548281    3.054576    0.720128
  H      1.922919    2.765159   -1.114476
  H     -1.158956   -0.407010   -2.686488
  H      0.551359   -1.731366   -2.912146
  H     -2.064684    1.450538   -0.762283
  H     -3.613944    1.365932    1.148225
  H     -3.954535   -0.751536    2.393581
  H     -2.735250   -2.799981    1.707935
  H     -1.176421   -2.741375   -0.197493

 Total Charge           Charge          ....    0
 Multiplicity           Mult            ....    1
 Number of Electrons    NEL             ....  112
 Basis Dimension        Dim             ....  284

ORBITAL ENERGIES
----------------

  NO   OCC          E(Eh)            E(eV)
   0   2.0000     -20.578661      -559.9738
   1   2.0000     -20.552285      -559.2561
   2   2.0000     -11.344032      -308.6868
   3   2.0000     -11.310942      -307.7864
   4   2.0000     -11.256712      -306.3107
   5   2.0000     -11.252019      -306.1830
   6   2.0000     -11.251532      -306.1698
   7   2.0000     -11.250252      -306.1349
   8   2.0000     -11.249009      -306.1011
   9   2.0000     -11.246714      -306.0387
  10   2.0000     -11.244209      -305.9705
  11   2.0000     -11.243578      -305.9533
  12   2.0000     -11.243487      -305.9508
  13   2.0000     -11.243110      -305.9406
  14   2.0000     -11.242392      -305.9210
  15   2.0000     -11.241252      -305.8900
  16   2.0000      -1.379291       -37.5324
  17   2.0000      -1.358359       -36.9628
  18   2.0000      -1.152693       -31.3664
  19   2.0000      -1.148486       -31.2519
  20   2.0000      -1.050672       -28.5902
  21   2.0000      -1.025181       -27.8966
  22   2.0000      -1.011124       -27.5141
  23   2.0000      -1.008278       -27.4366
  24   2.0000      -0.948050       -25.7978
  25   2.0000      -0.861885       -23.4531
  26   2.0000      -0.828481       -22.5441
  27   2.0000      -0.827998       -22.5310
  28   2.0000      -0.807248       -21.9663
  29   2.0000      -0.763340       -20.7715
  30   2.0000      -0.735307       -20.0087
  31   2.0000      -0.701820       -19.0975
  32   2.0000      -0.689574       -18.7643
  33   2.0000      -0.670315       -18.2402
  34   2.0000      -0.647063       -17.6075
  35   2.0000      -0.637763       -17.3544
  36   2.0000      -0.628247       -17.0955
  37   2.0000      -0.620697       -16.8900
  38   2.0000      -0.610268       -16.6062
  39   2.0000      -0.608824       -16.5670
  40   2.0000      -0.592746       -16.1295
  41   2.0000      -0.590768       -16.0756
  42   2.0000      -0.552144       -15.0246
  43   2.0000      -0.542813       -14.7707
  44   2.0000      -0.522276       -14.2118
  45   2.0000      -0.513487       -13.9727
  46   2.0000      -0.508052       -13.8248
  47   2.0000      -0.502675       -13.6785
  48   2.0000      -0.500083       -13.6079
  49   2.0000      -0.492952       -13.4139
  50   2.0000      -0.480313       -13.0700
  51   2.0000      -0.422950       -11.5090
  52   2.0000      -0.350766        -9.5448
  53   2.0000      -0.344159        -9.3650
  54   2.0000      -0.340611        -9.2685
  55   2.0000      -0.332964        -9.0604
  56   0.0000       0.074213         2.0194
  57   0.0000       0.116604         3.1729
  58   0.0000       0.129052         3.5117
  59   0.0000       0.131718         3.5842
  60   0.0000       0.166350         4.5266

MULLIKEN ATOMIC CHARGES
-----------------------
   0 O :   -0.385268
   1 C :    0.287974
   2 C :   -0.223042
   3 C :    0.028448
   4 C :   -0.053835
   5 C :   -0.006468
   6 C :   -0.052457
   7 C :    0.028075
   8 C :    0.409375
   9 O :   -0.451061
  10 C :   -0.219621
  11 C :   -0.024176
  12 C :   -0.030514
  13 C :   -0.034466
  14 C :   -0.031383
  15 C :   -0.013872
  16 H :    0.066608
  17 H :    0.043370
  18 H :    0.047100
  19 H :    0.045232
  20 H :    0.064944
  21 H :    0.057204
  22 H :    0.211860
  23 H :    0.049119
  24 H :    0.044345
  25 H :    0.042556
  26 H :    0.042427
  27 H :    0.057526
Sum of atomic charges:    0.0000000

LOEWDIN ATOMIC CHARGES
----------------------
   0 O :   -0.241788
   1 C :    0.157155
   2 C :   -0.094530
   3 C :    0.015931
   4 C :   -0.035913
   5 C :    0.002200
   6 C :   -0.036667
   7 C :    0.028921
   8 C :    0.102683
   9 O :   -0.176805
  10 C :   -0.045320
  11 C :   -0.022277
  12 C :   -0.018927
  13 C :   -0.025154
  14 C :   -0.021281
  15 C :   -0.016919
  16 H :    0.033159
  17 H :    0.028410
  18 H :    0.029479
  19 H :    0.028581
  20 H :    0.038193
  21 H :    0.027756
  22 H :    0.098238
  23 H :    0.029469
  24 H :    0.028984
  25 H :    0.026952
  26 H :    0.027942
  27 H :    0.031526

  Mayer bond orders larger than 0.100000
B(  0-O ,  1-C ) :   2.0099 B(  1-C ,  2-C ) :   0.9597 B(  1-C ,  8-C ) :   0.9716
B(  2-C ,  3-C ) :   1.4008 B(  2-C ,  7-C ) :   1.4046 B(  3-C ,  4-C ) :   1.4296
B(  3-C , 16-H ) :   0.9864 B(  4-C ,  5-C ) :   1.4137 B(  4-C , 17-H ) :   0.9989
B(  5-C ,  6-C ) :   1.3955 B(  5-C , 18-H ) :   0.9988 B(  6-C ,  7-C ) :   1.4348
B(  6-C , 19-H ) :   1.0013 B(  7-C , 20-H ) :   0.9980 B(  8-C ,  9-O ) :   0.9150
B(  8-C , 10-C ) :   0.9760 B(  8-C , 21-H ) :   0.9615 B(  9-O , 22-H ) :   0.9630
B( 10-C , 11-C ) :   1.4018 B( 10-C , 15-C ) :   1.4412 B( 11-C , 12-C ) :   1.4395
B( 11-C , 23-H ) :   0.9980 B( 12-C , 13-C ) :   1.4096 B( 12-C , 24-H ) :   0.9998
B( 13-C , 14-C ) :   1.4152 B( 13-C , 25-H ) :   0.9997 B( 14-C , 15-C ) :   1.4143
B( 14-C , 26-H ) :   1.0014 B( 15-C , 27-H ) :   0.9974

FINAL SINGLE POINT ENERGY      -686.349360719530

DIPOLE MOMENT
-------------
                                X             Y             Z
Electronic contribution:      1.06470       0.95393      -4.43462
Nuclear contribution   :     -0.99961      -1.32139       5.09562
                        -----------------------------------------
Total Dipole Moment    :      0.06509      -0.36746       0.66099
                        -----------------------------------------
Magnitude (a.u.)       :      0.75906
Magnitude (Debye)      :      1.92938

Rotational constants in cm-1:     0.027032     0.012648     0.011259
Rotational constants in MHz :   810.400714   379.185582   337.542590

                             ****ORCA TERMINATED NORMALLY****
TOTAL RUN TIME: 0 days 0 hours 0 minutes 11 seconds 366 msec
