                         Program Version 5.0.3 -  RELEASE  -
|  1> !RHF def2-SVP TightSCF PAL16
|  2> *xyz 0 1
|  3> N 4.559111225432729 -0.24487853814541757 -0.6295841786354326
|  4> C 3.1889058729288067 -0.01583495820751819 -0.4716371439284795
|  5> C 2.615957690871564 1.1706014530083595 -0.9458736222810116
|  6> C 1.2313251159964058 1.366956264009886 -0.9098733378785365
|  7> C 0.40628093862108133 0.3603494962175242 -0.42088140930341233
|  8> C 0.963696679287708 -0.8496498176536571 -0.015300071141382038
|  9> C 2.3466984501448684 -1.0488536323956354 -0.05517875201379348
| 10> C 0.05342075101814831 -1.9294454462222872 0.39987089147935784
| 11> O 0.44495356275331005 -3.043893934976769 0.7152352799494957
| 12> N -1.2752691688025652 -1.5975639015482408 0.40548484078114105
| 13> C -1.6519384891722542 -0.21380073880952466 0.5320694241905228
| 14> C -3.1514791927716037 -0.036669060906156105 0.2988946046420296
| 15> C -3.5665016257003535 1.419081484702153 0.458539462875784
| 16> Cl -5.331604870593002 1.5788232823184316 0.29221811884903554
| 17> O -0.9419974376611004 0.5934998543385283 -0.4160612041850644
| 18> H 5.128896746181944 0.5951925882649731 -0.6283063975207012
| 19> H 4.934590170512886 -0.9688209433147008 -0.02383310848197017
| 20> H 3.248023384350428 1.9546456094704092 -1.356149918890184
| 21> H 0.8053408431244525 2.2978205486871603 -1.2732686864241836
| 22> H 2.757255484125188 -2.014406384685333 0.22977680765784048
| 23> H -1.8538888231469541 -2.308082621403309 0.8351672835325573
| 24> H -1.391567880398179 0.11933302801098718 1.5462442732100807
| 25> H -3.7087144117874873 -0.6691542945156889 1.001520717993924
| 26> H -3.409913828450312 -0.3742229917314225 -0.713465785101445
| 27> H -3.107348433822522 2.0569021060239914 -0.30222886228426327
| 28> H -3.2942327530426425 1.802071549461927 1.446620772908203
| 29> *
| 30>
| 31>                          ****END OF INPUT****

CARTESIAN COORDINATES (ANGSTROEM)
---------------------------------
  N      4.559111   -0.244879   -0.629584
  C      3.188906   -0.015835   -0.471637
  C      2.615958    1.170601   -0.945874
  C      1.231325    1.366956   -0.909873
  C      0.406281    0.360349   -0.420881
  C      0.963697   -0.849650   -0.015300
  C      2.346698   -1.048854   -0.055179
  C      0.053421   -1.929445    0.399871
  O      0.444954   -3.043894    0.715235
  N     -1.275269   -1.597564    0.405485
  C     -1.651938   -0.213801    0.532069
  C     -3.151479   -0.036669    0.298895
  C     -3.566502    1.419081    0.458539
  Cl    -5.331605    1.578823    0.292218
  O     -0.941997    0.593500   -0.416061
  H      5.128897    0.595193   -0.628306
  H      4.934590   -0.968821   -0.023833
  H      3.248023    1.954646   -1.356150
  H      0.805341    2.297821   -1.273269
  H      2.757255   -2.014406    0.229777
  H     -1.853889   -2.308083    0.835167
  H     -1.391568    0.119333    1.546244
  H     -3.708714   -0.669154    1.001521
  H     -3.409914   -0.374223   -0.713466
  H     -3.107348    2.056902   -0.302229
  H     -3.294233    1.802072    1.446621

 Total Charge           Charge          ....    0
 Multiplicity           Mult            ....    1
 Number of Electrons    NEL             ....  118
 Basis Dimension        Dim             ....  269

ORBITAL ENERGIES
----------------

  NO   OCC          E(Eh)            E(eV)
   0   2.0000    -104.779574     -2851.1972
   1   2.0000     -20.601647      -560.5993
   2   2.0000     -20.520276      -558.3851
   3   2.0000     -15.593436      -424.3190
   4   2.0000     -15.570741      -423.7014
   5   2.0000     -11.362288      -309.1836
   6   2.0000     -11.356092      -309.0150
   7   2.0000     -11.313781      -307.8636
   8   2.0000     -11.301550      -307.5308
   9   2.0000     -11.287565      -307.1503
  10   2.0000     -11.260112      -306.4032
  11   2.0000     -11.256147      -306.2953
  12   2.0000     -11.254221      -306.2429
  13   2.0000     -11.252497      -306.1960
  14   2.0000     -11.251327      -306.1642
  15   2.0000     -10.543290      -286.8975
  16   2.0000      -8.018322      -218.1896
  17   2.0000      -8.014899      -218.0965
  18   2.0000      -8.014832      -218.0947
  19   2.0000      -1.429372       -38.8952
  20   2.0000      -1.370167       -37.2841
  21   2.0000      -1.234494       -33.5923
  22   2.0000      -1.219924       -33.1958
  23   2.0000      -1.148241       -31.2452
  24   2.0000      -1.135928       -30.9102
  25   2.0000      -1.051279       -28.6068
  26   2.0000      -1.035374       -28.1740
  27   2.0000      -0.986730       -26.8503
  28   2.0000      -0.909792       -24.7567
  29   2.0000      -0.898867       -24.4594
  30   2.0000      -0.836957       -22.7748
  31   2.0000      -0.826721       -22.4962
  32   2.0000      -0.780749       -21.2453
  33   2.0000      -0.758937       -20.6517
  34   2.0000      -0.735708       -20.0196
  35   2.0000      -0.713729       -19.4216
  36   2.0000      -0.687937       -18.7197
  37   2.0000      -0.669478       -18.2174
  38   2.0000      -0.652561       -17.7571
  39   2.0000      -0.635312       -17.2877
  40   2.0000      -0.625906       -17.0318
  41   2.0000      -0.616369       -16.7722
  42   2.0000      -0.605617       -16.4797
  43   2.0000      -0.591869       -16.1056
  44   2.0000      -0.583741       -15.8844
  45   2.0000      -0.573125       -15.5955
  46   2.0000      -0.558860       -15.2074
  47   2.0000      -0.552272       -15.0281
  48   2.0000      -0.537895       -14.6369
  49   2.0000      -0.528717       -14.3871
  50   2.0000      -0.514087       -13.9890
  51   2.0000      -0.508045       -13.8246
  52   2.0000      -0.443905       -12.0793
  53   2.0000      -0.440902       -11.9975
  54   2.0000      -0.434160       -11.8141
  55   2.0000      -0.432055       -11.7568
  56   2.0000      -0.409000       -11.1295
  57   2.0000      -0.358824        -9.7641
  58   2.0000      -0.299442        -8.1482
  59   0.0000       0.078955         2.1485
  60   0.0000       0.140529         3.8240
  61   0.0000       0.161807         4.4030
  62   0.0000       0.173011         4.7079
  63   0.0000       0.188543         5.1305

MULLIKEN ATOMIC CHARGES
-----------------------
   0 N :   -0.269630
   1 C :    0.111220
   2 C :   -0.035479
   3 C :   -0.065903
   4 C :    0.326089
   5 C :   -0.312951
   6 C :    0.000609
   7 C :    0.558038
   8 O :   -0.419773
   9 N :   -0.459915
  10 C :    0.451161
  11 C :   -0.051930
  12 C :    0.042993
  13 Cl:   -0.224012
  14 O :   -0.559186
  15 H :    0.135577
  16 H :    0.139052
  17 H :    0.035913
  18 H :    0.046205
  19 H :    0.055478
  20 H :    0.169501
  21 H :    0.031987
  22 H :    0.052605
  23 H :    0.069356
  24 H :    0.099743
  25 H :    0.073251
Sum of atomic charges:   -0.0000000

LOEWDIN ATOMIC CHARGES
----------------------
   0 N :   -0.085116
   1 C :    0.030418
   2 C :   -0.025759
   3 C :   -0.031705
   4 C :    0.075892
   5 C :   -0.111107
   6 C :   -0.002871
   7 C :    0.182446
   8 O :   -0.301335
   9 N :   -0.091263
  10 C :    0.187341
  11 C :   -0.039774
  12 C :   -0.038636
  13 Cl:    0.005268
  14 O :   -0.192477
  15 H :    0.069138
  16 H :    0.071770
  17 H :    0.028800
  18 H :    0.036159
  19 H :    0.040676
  20 H :    0.089897
  21 H :   -0.003042
  22 H :    0.025710
  23 H :    0.033254
  24 H :    0.027619
  25 H :    0.018700

  Mayer bond orders larger than 0.100000
B(  0-N ,  1-C ) :   1.1035 B(  0-N , 15-H ) :   0.9601 B(  0-N , 16-H ) :   0.9601
B(  1-C ,  2-C ) :   1.3441 B(  1-C ,  6-C ) :   1.3870 B(  2-C ,  3-C ) :   1.4455
B(  2-C , 17-H ) :   1.0008 B(  3-C ,  4-C ) :   1.4249 B(  3-C , 18-H ) :   1.0039
B(  4-C ,  5-C ) :   1.3486 B(  4-C , 14-O ) :   0.9627 B(  5-C ,  6-C ) :   1.3992
B(  5-C ,  7-C ) :   0.9501 B(  6-C , 19-H ) :   1.0056 B(  7-C ,  8-O ) :   2.0400
B(  7-C ,  9-N ) :   1.1126 B(  9-N , 10-C ) :   0.9311 B(  9-N , 20-H ) :   0.9242
B( 10-C , 11-C ) :   1.0256 B( 10-C , 14-O ) :   0.8810 B( 10-C , 21-H ) :   0.9700
B( 11-C , 12-C ) :   1.0093 B( 11-C , 22-H ) :   0.9645 B( 11-C , 23-H ) :   0.9592
B( 12-C , 13-Cl) :   0.9642 B( 12-C , 24-H ) :   0.9671 B( 12-C , 25-H ) :   0.9701

FINAL SINGLE POINT ENERGY     -1102.603408899875

DIPOLE MOMENT
-------------
                                X             Y             Z
Electronic contribution:    -11.20181       0.79960       0.20384
Nuclear contribution   :     12.10690       0.32496       0.35733
                        -----------------------------------------
Total Dipole Moment    :      0.90509       1.12456       0.56117
                        -----------------------------------------
Magnitude (a.u.)       :      1.54879
Magnitude (Debye)      :      3.93670

Rotational constants in cm-1:     0.041300     0.007982     0.006755
Rotational constants in MHz :  1238.155643   239.290162   202.496899

                             ****ORCA TERMINATED NORMALLY****
TOTAL RUN TIME: 0 days 0 hours 0 minutes 9 seconds 669 msec
