                         Program Version 5.0.3 -  RELEASE  -
|  1> !RHF def2-SVP TightSCF PAL16
|  2> *xyz 0 1
|  3> C 2.602498877231107 0.02590755213907571 2.0325302120021105
|  4> N 3.526436094489635 -0.1092783901526056 0.9103991428132666
|  5> C 3.800118993429432 1.190299510388338 0.3046478468447467
|  6> C 3.0837790110025316 -1.117345560141751 -0.07180166585719791
|  7> C 1.8177785601487482 -0.8343400021296474 -0.9040019693014468
|  8> O 0.647659685234575 -0.915871394765971 -0.08651454121571024
|  9> C -0.5548591772878421 -0.6322598225934276 -0.825188675387165
| 10> C -1.752364455354976 -1.3116281885217373 -0.1619827805073077
| 11> C -2.9760084776213485 -1.3809750248330486 -0.8534311361956315
| 12> C -4.092403214741655 -1.9877521086670529 -0.27280045502101435
| 13> C -3.9968005925785377 -2.5320091060427132 1.0051403090608864
| 14> Cl -5.371285644081501 -3.27883624919146 1.7217119300483783
| 15> C -2.795594148980784 -2.474417091263547 1.7071891108283634
| 16> C -1.6789216315471533 -1.8665856846078421 1.126792259869173
| 17> C -0.747641610756538 0.8750119787656986 -0.971910140494565
| 18> C -0.8226288321469843 1.697121078697903 0.15357510329364515
| 19> C -0.9886763350738981 3.0678195668788204 -0.01996326207770422
| 20> C -1.0746222803424554 3.585223704356322 -1.305994131699335
| 21> C -0.989139245568363 2.7063836194954822 -2.371899590787067
| 22> N -0.8265058268493587 1.3716372945624589 -2.237001683190455
| 23> H 3.057490685919722 0.6353286886552311 2.821723897699512
| 24> H 2.383791958999612 -0.9493690240303904 2.4811125498211744
| 25> H 1.6581571108040976 0.5007661646390428 1.7508966992191026
| 26> H 4.2777043337791865 1.8548076234135982 1.033582871565829
| 27> H 4.500728255026816 1.0893978426162603 -0.5315276901413352
| 28> H 2.894287299412606 1.6873036834652784 -0.05896490653311098
| 29> H 2.9519404139508723 -2.071573036263912 0.4546076444960786
| 30> H 3.9141701709718837 -1.2789198248399272 -0.771142776237461
| 31> H 1.7468609637707138 -1.599904652731252 -1.6861714163219683
| 32> H 1.882799698278094 0.14177088953690656 -1.3949537064201785
| 33> H -0.46013056595106466 -1.084179622991609 -1.8227746022841376
| 34> H -3.0643696873177637 -0.95361702842431 -1.851762711923112
| 35> H -5.029326512436998 -2.0298555200335353 -0.8215128520997618
| 36> H -2.7189425599835997 -2.899934798213413 2.7040941606580873
| 37> H -0.7476973658945913 -1.8316441111856743 1.6894272591495623
| 38> H -0.7506070686120527 1.2745829672815339 1.1510172817531072
| 39> H -1.0510588258369125 3.72488697723962 0.8427653189638533
| 40> H -1.2055948476765102 4.64820179508033 -1.4740043250185557
| 41> H -1.0510232058083653 3.063845304413081 -3.3959085793726955
| 42> *
| 43>
| 44>                          ****END OF INPUT****

CARTESIAN COORDINATES (ANGSTROEM)
---------------------------------
  C      2.602499    0.025908    2.032530
  N      3.526436   -0.109278    0.910399
  C      3.800119    1.190300    0.304648
  C      3.083779   -1.117346   -0.071802
  C      1.817779   -0.834340   -0.904002
  O      0.647660   -0.915871   -0.086515
  C     -0.554859   -0.632260   -0.825189
  C     -1.752364   -1.311628   -0.161983
  C     -2.976008   -1.380975   -0.853431
  C     -4.092403   -1.987752   -0.272800
  C     -3.996801   -2.532009    1.005140
  Cl    -5.371286   -3.278836    1.721712
  C     -2.795594   -2.474417    1.707189
  C     -1.678922   -1.866586    1.126792
  C     -0.747642    0.875012   -0.971910
  C     -0.822629    1.697121    0.153575
  C     -0.988676    3.067820   -0.019963
  C     -1.074622    3.585224   -1.305994
  C     -0.989139    2.706384   -2.371900
  N     -0.826506    1.371637   -2.237002
  H      3.057491    0.635329    2.821724
  H      2.383792   -0.949369    2.481113
  H      1.658157    0.500766    1.750897
  H      4.277704    1.854808    1.033583
  H      4.500728    1.089398   -0.531528
  H      2.894287    1.687304   -0.058965
  H      2.951940   -2.071573    0.454608
  H      3.914170   -1.278920   -0.771143
  H      1.746861   -1.599905   -1.686171
  H      1.882800    0.141771   -1.394954
  H     -0.460131   -1.084180   -1.822775
  H     -3.064370   -0.953617   -1.851763
  H     -5.029327   -2.029856   -0.821513
  H     -2.718943   -2.899935    2.704094
  H     -0.747697   -1.831644    1.689427
  H     -0.750607    1.274583    1.151017
  H     -1.051059    3.724887    0.842765
  H     -1.205595    4.648202   -1.474004
  H     -1.051023    3.063845   -3.395909

 Total Charge           Charge          ....    0
 Multiplicity           Mult            ....    1
 Number of Electrons    NEL             ....  154
 Basis Dimension        Dim             ....  379

ORBITAL ENERGIES
----------------

  NO   OCC          E(Eh)            E(eV)
   0   2.0000    -104.791272     -2851.5155
   1   2.0000     -20.561114      -559.4963
   2   2.0000     -15.575606      -423.8338
   3   2.0000     -15.540635      -422.8822
   4   2.0000     -11.305724      -307.6444
   5   2.0000     -11.297715      -307.4265
   6   2.0000     -11.291653      -307.2615
   7   2.0000     -11.286095      -307.1103
   8   2.0000     -11.282488      -307.0121
   9   2.0000     -11.269266      -306.6523
  10   2.0000     -11.256216      -306.2972
  11   2.0000     -11.255096      -306.2667
  12   2.0000     -11.252395      -306.1932
  13   2.0000     -11.251420      -306.1667
  14   2.0000     -11.251276      -306.1628
  15   2.0000     -11.251238      -306.1617
  16   2.0000     -11.250649      -306.1457
  17   2.0000     -11.248113      -306.0767
  18   2.0000     -11.246960      -306.0453
  19   2.0000     -11.239619      -305.8456
  20   2.0000     -10.555200      -287.2216
  21   2.0000      -8.030343      -218.5167
  22   2.0000      -8.026736      -218.4186
  23   2.0000      -8.026677      -218.4170
  24   2.0000      -1.364981       -37.1430
  25   2.0000      -1.249485       -34.0002
  26   2.0000      -1.204420       -32.7739
  27   2.0000      -1.182457       -32.1763
  28   2.0000      -1.119064       -30.4513
  29   2.0000      -1.085123       -29.5277
  30   2.0000      -1.057863       -28.7859
  31   2.0000      -1.017196       -27.6793
  32   2.0000      -1.010177       -27.4883
  33   2.0000      -0.985053       -26.8046
  34   2.0000      -0.936033       -25.4708
  35   2.0000      -0.919716       -25.0267
  36   2.0000      -0.873510       -23.7694
  37   2.0000      -0.860082       -23.4040
  38   2.0000      -0.836594       -22.7649
  39   2.0000      -0.832047       -22.6412
  40   2.0000      -0.790110       -21.5000
  41   2.0000      -0.778736       -21.1905
  42   2.0000      -0.721953       -19.6453
  43   2.0000      -0.697904       -18.9909
  44   2.0000      -0.694677       -18.9031
  45   2.0000      -0.673383       -18.3237
  46   2.0000      -0.665755       -18.1161
  47   2.0000      -0.646990       -17.6055
  48   2.0000      -0.642470       -17.4825
  49   2.0000      -0.633021       -17.2254
  50   2.0000      -0.628389       -17.0993
  51   2.0000      -0.617767       -16.8103
  52   2.0000      -0.611670       -16.6444
  53   2.0000      -0.601013       -16.3544
  54   2.0000      -0.595551       -16.2058
  55   2.0000      -0.586966       -15.9721
  56   2.0000      -0.571213       -15.5435
  57   2.0000      -0.550683       -14.9848
  58   2.0000      -0.542866       -14.7721
  59   2.0000      -0.542103       -14.7514
  60   2.0000      -0.537566       -14.6279
  61   2.0000      -0.532052       -14.4779
  62   2.0000      -0.520860       -14.1733
  63   2.0000      -0.510052       -13.8792
  64   2.0000      -0.505466       -13.7544
  65   2.0000      -0.500094       -13.6082
  66   2.0000      -0.494750       -13.4628
  67   2.0000      -0.483195       -13.1484
  68   2.0000      -0.460728       -12.5370
  69   2.0000      -0.448569       -12.2062
  70   2.0000      -0.444994       -12.1089
  71   2.0000      -0.422827       -11.5057
  72   2.0000      -0.390010       -10.6127
  73   2.0000      -0.358969        -9.7680
  74   2.0000      -0.349066        -9.4986
  75   2.0000      -0.346885        -9.4392
  76   2.0000      -0.324091        -8.8190
  77   0.0000       0.097362         2.6494
  78   0.0000       0.110226         2.9994
  79   0.0000       0.117684         3.2023
  80   0.0000       0.131862         3.5882
  81   0.0000       0.170784         4.6473

MULLIKEN ATOMIC CHARGES
-----------------------
   0 C :    0.165604
   1 N :   -0.629814
   2 C :    0.142891
   3 C :    0.152184
   4 C :    0.251639
   5 O :   -0.622070
   6 C :    0.504598
   7 C :   -0.204578
   8 C :   -0.007469
   9 C :   -0.009150
  10 C :    0.034752
  11 Cl:   -0.140693
  12 C :   -0.007547
  13 C :   -0.002107
  14 C :   -0.012259
  15 C :   -0.039617
  16 C :    0.040737
  17 C :   -0.118054
  18 C :    0.161804
  19 N :   -0.375479
  20 H :    0.019224
  21 H :    0.025591
  22 H :    0.012978
  23 H :    0.031025
  24 H :    0.026004
  25 H :    0.011365
  26 H :    0.038745
  27 H :    0.032664
  28 H :    0.017458
  29 H :    0.030652
  30 H :    0.040916
  31 H :    0.051507
  32 H :    0.047192
  33 H :    0.046067
  34 H :    0.061676
  35 H :    0.058937
  36 H :    0.055287
  37 H :    0.052870
  38 H :    0.054472
Sum of atomic charges:    0.0000000

LOEWDIN ATOMIC CHARGES
----------------------
   0 C :    0.054233
   1 N :   -0.202290
   2 C :    0.052406
   3 C :    0.055336
   4 C :    0.115950
   5 O :   -0.255229
   6 C :    0.132884
   7 C :   -0.037466
   8 C :   -0.010685
   9 C :   -0.036452
  10 C :   -0.117243
  11 Cl:    0.091130
  12 C :   -0.037593
  13 C :   -0.009020
  14 C :    0.031968
  15 C :   -0.041233
  16 C :    0.026632
  17 C :   -0.065507
  18 C :    0.058610
  19 N :   -0.153915
  20 H :    0.006904
  21 H :    0.012045
  22 H :   -0.007619
  23 H :    0.013344
  24 H :    0.011143
  25 H :   -0.007916
  26 H :    0.017932
  27 H :    0.015952
  28 H :    0.005698
  29 H :    0.002921
  30 H :    0.021979
  31 H :    0.032837
  32 H :    0.032846
  33 H :    0.032246
  34 H :    0.034981
  35 H :    0.033503
  36 H :    0.033681
  37 H :    0.031796
  38 H :    0.023209

  Mayer bond orders larger than 0.100000
B(  0-C ,  1-N ) :   0.9383 B(  0-C , 20-H ) :   0.9886 B(  0-C , 21-H ) :   0.9905
B(  0-C , 22-H ) :   0.9794 B(  1-N ,  2-C ) :   0.9461 B(  1-N ,  3-C ) :   0.9734
B(  2-C , 23-H ) :   0.9912 B(  2-C , 24-H ) :   0.9899 B(  2-C , 25-H ) :   0.9778
B(  3-C ,  4-C ) :   1.0128 B(  3-C , 26-H ) :   0.9788 B(  3-C , 27-H ) :   0.9808
B(  4-C ,  5-O ) :   0.8636 B(  4-C , 28-H ) :   0.9717 B(  4-C , 29-H ) :   0.9639
B(  5-O ,  6-C ) :   0.9044 B(  6-C ,  7-C ) :   1.0025 B(  6-C , 14-C ) :   0.9804
B(  6-C , 30-H ) :   0.9688 B(  7-C ,  8-C ) :   1.4034 B(  7-C , 13-C ) :   1.4278
B(  8-C ,  9-C ) :   1.4398 B(  8-C , 31-H ) :   0.9967 B(  9-C , 10-C ) :   1.3993
B(  9-C , 32-H ) :   1.0028 B( 10-C , 11-Cl) :   0.9472 B( 10-C , 12-C ) :   1.4097
B( 12-C , 13-C ) :   1.4097 B( 12-C , 33-H ) :   1.0040 B( 13-C , 34-H ) :   0.9986
B( 14-C , 15-C ) :   1.3808 B( 14-C , 19-N ) :   1.4683 B( 15-C , 16-C ) :   1.4464
B( 15-C , 35-H ) :   0.9841 B( 16-C , 17-C ) :   1.4054 B( 16-C , 36-H ) :   0.9954
B( 17-C , 18-C ) :   1.4182 B( 17-C , 37-H ) :   0.9910 B( 18-C , 19-N ) :   1.4452
B( 18-C , 38-H ) :   0.9998

FINAL SINGLE POINT ENERGY     -1259.437141917054

DIPOLE MOMENT
-------------
                                X             Y             Z
Electronic contribution:    -34.23564     -13.79782       2.37226
Nuclear contribution   :     34.54217      14.95152      -2.68974
                        -----------------------------------------
Total Dipole Moment    :      0.30653       1.15369      -0.31748
                        -----------------------------------------
Magnitude (a.u.)       :      1.23522
Magnitude (Debye)      :      3.13967

Rotational constants in cm-1:     0.014129     0.005693     0.004593
Rotational constants in MHz :   423.581260   170.669349   137.708685

                             ****ORCA TERMINATED NORMALLY****
TOTAL RUN TIME: 0 days 0 hours 0 minutes 21 seconds 251 msec
