                         Program Version 5.0.3 -  RELEASE  -
|  1> !RHF def2-SVP TightSCF PAL16
|  2> *xyz 0 1
|  3> C 2.73713924048402 1.3499528853964395 0.5100064019073824
|  4> C 2.7173522221086657 0.19543173925794052 -0.5003123655534792
|  5> C 2.742294760181881 0.7977844763811266 -1.9203720334135816
|  6> C 3.9774523301916376 -0.6689206308224704 -0.32633573924912074
|  7> N 1.4954378570541964 -0.6122649369533272 -0.42870113953746475
|  8> C 1.1927359334943235 -1.3744441858100955 0.779070405101618
|  9> C 0.4738110173800342 -0.6458179015640484 1.939852044510513
| 10> O 0.14555970288596606 -1.5946222473932858 2.9694989134640744
| 11> C -0.8141130859261252 0.08655562187991153 1.5261308158462885
| 12> O -1.6263163348477823 -0.765306369340812 0.7142096296055134
| 13> C -2.77794850538524 -0.24725023444263883 0.18375994989309558
| 14> C -3.304489048762681 1.0076446847592329 0.5076395610433163
| 15> C -4.4914815152048915 1.443885716084484 -0.08727080018832496
| 16> Cl -5.126356122354979 2.9920718632530234 0.31779826403819905
| 17> C -5.1680306682957236 0.6426601044799244 -1.0037855731489405
| 18> C -4.654273724897945 -0.611479659225364 -1.3298451805737053
| 19> C -3.466932050754687 -1.0543789194216866 -0.7386519697478592
| 20> Cl -2.8747927731481995 -2.6158003573207673 -1.188250017500879
| 21> H 2.883768257752126 0.9924847548588863 1.5333217455240793
| 22> H 1.8089429048206394 1.93107604621828 0.4747891044323152
| 23> H 3.561682448908051 2.0411073497001633 0.2979436127092003
| 24> H 1.8755048417393803 1.4460982723582452 -2.097085801518463
| 25> H 3.6421160495179303 1.4039256860600666 -2.078253036673482
| 26> H 2.7364647416508245 0.014522088090973787 -2.6880670089847225
| 27> H 4.882786370079531 -0.08778911683101633 -0.5382820836284569
| 28> H 3.971061639406105 -1.5256260801068662 -1.0102979033446824
| 29> H 4.0762792212922285 -1.0522974013867132 0.6946166939629501
| 30> H 0.6750622987193262 -0.09804749172925982 -0.7470669751551439
| 31> H 0.5548169520008579 -2.21360521761543 0.4705938378603732
| 32> H 2.0870943842516874 -1.8730411706191266 1.1690474136734728
| 33> H 1.142275698098847 0.07731500738665346 2.413240956533144
| 34> H 0.9340519638730197 -2.1386067869345484 3.136985837080782
| 35> H -0.548261588523013 0.9874105183102478 0.9607123798722484
| 36> H -1.370996083626613 0.3636899372207445 2.4293150087951143
| 37> H -2.8178517726356556 1.6607132137280674 1.223934025438045
| 38> H -6.0913454662911795 0.9854479777198465 -1.463529419344486
| 39> H -5.180502095236986 -1.240479235626997 -2.043582230953534
| 40> *
| 41>
| 42>                          ****END OF INPUT****

CARTESIAN COORDINATES (ANGSTROEM)
---------------------------------
  C      2.737139    1.349953    0.510006
  C      2.717352    0.195432   -0.500312
  C      2.742295    0.797784   -1.920372
  C      3.977452   -0.668921   -0.326336
  N      1.495438   -0.612265   -0.428701
  C      1.192736   -1.374444    0.779070
  C      0.473811   -0.645818    1.939852
  O      0.145560   -1.594622    2.969499
  C     -0.814113    0.086556    1.526131
  O     -1.626316   -0.765306    0.714210
  C     -2.777949   -0.247250    0.183760
  C     -3.304489    1.007645    0.507640
  C     -4.491482    1.443886   -0.087271
  Cl    -5.126356    2.992072    0.317798
  C     -5.168031    0.642660   -1.003786
  C     -4.654274   -0.611480   -1.329845
  C     -3.466932   -1.054379   -0.738652
  Cl    -2.874793   -2.615800   -1.188250
  H      2.883768    0.992485    1.533322
  H      1.808943    1.931076    0.474789
  H      3.561682    2.041107    0.297944
  H      1.875505    1.446098   -2.097086
  H      3.642116    1.403926   -2.078253
  H      2.736465    0.014522   -2.688067
  H      4.882786   -0.087789   -0.538282
  H      3.971062   -1.525626   -1.010298
  H      4.076279   -1.052297    0.694617
  H      0.675062   -0.098047   -0.747067
  H      0.554817   -2.213605    0.470594
  H      2.087094   -1.873041    1.169047
  H      1.142276    0.077315    2.413241
  H      0.934052   -2.138607    3.136986
  H     -0.548262    0.987411    0.960712
  H     -1.370996    0.363690    2.429315
  H     -2.817852    1.660713    1.223934
  H     -6.091345    0.985448   -1.463529
  H     -5.180502   -1.240479   -2.043582

 Total Charge           Charge          ....    0
 Multiplicity           Mult            ....    1
 Number of Electrons    NEL             ....  154
 Basis Dimension        Dim             ....  355

ORBITAL ENERGIES
----------------

  NO   OCC          E(Eh)            E(eV)
   0   2.0000    -104.804567     -2851.8772
   1   2.0000    -104.793405     -2851.5735
   2   2.0000     -20.594755      -560.4118
   3   2.0000     -20.551165      -559.2256
   4   2.0000     -15.539247      -422.8444
   5   2.0000     -11.335140      -308.4448
   6   2.0000     -11.316334      -307.9331
   7   2.0000     -11.306267      -307.6592
   8   2.0000     -11.304795      -307.6191
   9   2.0000     -11.291191      -307.2489
  10   2.0000     -11.269352      -306.6547
  11   2.0000     -11.267128      -306.5941
  12   2.0000     -11.264020      -306.5096
  13   2.0000     -11.257731      -306.3384
  14   2.0000     -11.256038      -306.2924
  15   2.0000     -11.224797      -305.4423
  16   2.0000     -11.223529      -305.4078
  17   2.0000     -11.221216      -305.3448
  18   2.0000     -10.568359      -287.5797
  19   2.0000     -10.556728      -287.2632
  20   2.0000      -8.043491      -218.8745
  21   2.0000      -8.039845      -218.7753
  22   2.0000      -8.039793      -218.7739
  23   2.0000      -8.031896      -218.5590
  24   2.0000      -8.028186      -218.4580
  25   2.0000      -8.028148      -218.4570
  26   2.0000      -1.409098       -38.3435
  27   2.0000      -1.338470       -36.4216
  28   2.0000      -1.202211       -32.7138
  29   2.0000      -1.199734       -32.6464
  30   2.0000      -1.160230       -31.5715
  31   2.0000      -1.093114       -29.7452
  32   2.0000      -1.060309       -28.8525
  33   2.0000      -1.036891       -28.2152
  34   2.0000      -1.006355       -27.3843
  35   2.0000      -0.966520       -26.3003
  36   2.0000      -0.933584       -25.4041
  37   2.0000      -0.930688       -25.3253
  38   2.0000      -0.911298       -24.7977
  39   2.0000      -0.857240       -23.3267
  40   2.0000      -0.818016       -22.2594
  41   2.0000      -0.800873       -21.7929
  42   2.0000      -0.752782       -20.4842
  43   2.0000      -0.729965       -19.8633
  44   2.0000      -0.706848       -19.2343
  45   2.0000      -0.699252       -19.0276
  46   2.0000      -0.681937       -18.5564
  47   2.0000      -0.664613       -18.0850
  48   2.0000      -0.647192       -17.6110
  49   2.0000      -0.638001       -17.3609
  50   2.0000      -0.635299       -17.2874
  51   2.0000      -0.614016       -16.7082
  52   2.0000      -0.608436       -16.5564
  53   2.0000      -0.595237       -16.1972
  54   2.0000      -0.589637       -16.0448
  55   2.0000      -0.578808       -15.7502
  56   2.0000      -0.566854       -15.4249
  57   2.0000      -0.556331       -15.1385
  58   2.0000      -0.552120       -15.0240
  59   2.0000      -0.548196       -14.9172
  60   2.0000      -0.540079       -14.6963
  61   2.0000      -0.528132       -14.3712
  62   2.0000      -0.523440       -14.2435
  63   2.0000      -0.521774       -14.1982
  64   2.0000      -0.517482       -14.0814
  65   2.0000      -0.504203       -13.7201
  66   2.0000      -0.494460       -13.4550
  67   2.0000      -0.480845       -13.0845
  68   2.0000      -0.477555       -12.9949
  69   2.0000      -0.463582       -12.6147
  70   2.0000      -0.461751       -12.5649
  71   2.0000      -0.454364       -12.3639
  72   2.0000      -0.447580       -12.1793
  73   2.0000      -0.444516       -12.0959
  74   2.0000      -0.358410        -9.7528
  75   2.0000      -0.355103        -9.6629
  76   2.0000      -0.324098        -8.8191
  77   0.0000       0.102857         2.7989
  78   0.0000       0.121859         3.3160
  79   0.0000       0.153367         4.1733
  80   0.0000       0.171614         4.6699
  81   0.0000       0.175224         4.7681

MULLIKEN ATOMIC CHARGES
-----------------------
   0 C :    0.050628
   1 C :   -0.246219
   2 C :    0.051070
   3 C :    0.052376
   4 N :   -0.475230
   5 C :    0.171169
   6 C :    0.203434
   7 O :   -0.461014
   8 C :    0.241044
   9 O :   -0.555976
  10 C :    0.346354
  11 C :   -0.121527
  12 C :    0.066454
  13 Cl:   -0.124536
  14 C :   -0.034406
  15 C :    0.020628
  16 C :   -0.016090
  17 Cl:   -0.097445
  18 H :    0.025384
  19 H :    0.018297
  20 H :    0.026461
  21 H :    0.019820
  22 H :    0.024637
  23 H :    0.042120
  24 H :    0.028053
  25 H :    0.042546
  26 H :    0.021998
  27 H :    0.137653
  28 H :    0.060470
  29 H :    0.013767
  30 H :    0.019059
  31 H :    0.196537
  32 H :    0.032034
  33 H :    0.060512
  34 H :    0.050093
  35 H :    0.051503
  36 H :    0.058340
Sum of atomic charges:    0.0000000

LOEWDIN ATOMIC CHARGES
----------------------
   0 C :   -0.038079
   1 C :    0.006238
   2 C :   -0.023010
   3 C :   -0.024610
   4 N :   -0.143724
   5 C :    0.043944
   6 C :    0.090846
   7 O :   -0.197008
   8 C :    0.132102
   9 O :   -0.187271
  10 C :    0.093862
  11 C :   -0.089715
  12 C :   -0.097048
  13 Cl:    0.102880
  14 C :   -0.060828
  15 C :   -0.007847
  16 C :   -0.142261
  17 Cl:    0.106740
  18 H :    0.008825
  19 H :    0.008681
  20 H :    0.017007
  21 H :    0.010626
  22 H :    0.014056
  23 H :    0.020176
  24 H :    0.018637
  25 H :    0.021803
  26 H :    0.008722
  27 H :    0.053824
  28 H :    0.024230
  29 H :    0.009048
  30 H :    0.002909
  31 H :    0.082906
  32 H :    0.004348
  33 H :    0.020017
  34 H :    0.034890
  35 H :    0.034758
  36 H :    0.039330

  Mayer bond orders larger than 0.100000
B(  0-C ,  1-C ) :   0.9849 B(  0-C , 18-H ) :   0.9806 B(  0-C , 19-H ) :   0.9799
B(  0-C , 20-H ) :   0.9774 B(  1-C ,  2-C ) :   1.0164 B(  1-C ,  3-C ) :   1.0061
B(  1-C ,  4-N ) :   0.9280 B(  2-C , 21-H ) :   0.9819 B(  2-C , 22-H ) :   0.9844
B(  2-C , 23-H ) :   0.9841 B(  3-C , 24-H ) :   0.9828 B(  3-C , 25-H ) :   0.9813
B(  3-C , 26-H ) :   0.9807 B(  4-N ,  5-C ) :   0.9781 B(  4-N , 27-H ) :   0.9572
B(  5-C ,  6-C ) :   0.9964 B(  5-C , 28-H ) :   0.9696 B(  5-C , 29-H ) :   0.9778
B(  6-C ,  7-O ) :   0.9206 B(  6-C ,  8-C ) :   1.0159 B(  6-C , 30-H ) :   0.9682
B(  7-O , 31-H ) :   0.9705 B(  8-C ,  9-O ) :   0.8445 B(  8-C , 32-H ) :   0.9675
B(  8-C , 33-H ) :   0.9708 B(  9-O , 10-C ) :   1.0330 B( 10-C , 11-C ) :   1.3642
B( 10-C , 16-C ) :   1.4056 B( 11-C , 12-C ) :   1.3711 B( 11-C , 34-H ) :   1.0088
B( 12-C , 13-Cl) :   0.9633 B( 12-C , 14-C ) :   1.4205 B( 14-C , 15-C ) :   1.4044
B( 14-C , 35-H ) :   1.0025 B( 15-C , 16-C ) :   1.4473 B( 15-C , 36-H ) :   0.9993
B( 16-C , 17-Cl) :   0.9853

FINAL SINGLE POINT ENERGY     -1625.663774312808

DIPOLE MOMENT
-------------
                                X             Y             Z
Electronic contribution:    -48.21134      -1.41599      -2.19324
Nuclear contribution   :     49.03415       2.07842       2.25539
                        -----------------------------------------
Total Dipole Moment    :      0.82281       0.66243       0.06215
                        -----------------------------------------
Magnitude (a.u.)       :      1.05816
Magnitude (Debye)      :      2.68962

Rotational constants in cm-1:     0.014873     0.005423     0.004930
Rotational constants in MHz :   445.896210   162.587957   147.795861

                             ****ORCA TERMINATED NORMALLY****
TOTAL RUN TIME: 0 days 0 hours 0 minutes 17 seconds 288 msec
