                         Program Version 5.0.3 -  RELEASE  -
|  1> !RHF def2-SVP TightSCF PAL16
|  2> *xyz 0 1
|  3> C 3.4102659949520167 -1.7957021353910594 0.8205569366295766
|  4> C 2.8662276068971813 -0.7936604529931296 -0.1947172080100999
|  5> C 3.92642819155786 0.19675253120637662 -0.6186963337687048
|  6> O 4.988849175655009 0.41936321274305266 -0.058829824756391404
|  7> O 3.6156705283283754 0.8602751204096972 -1.7522118863290885
|  8> C 1.654574975402562 -0.07238516604836628 0.32406800818778364
|  9> N 0.4305148653432127 -0.3250542259242658 -0.09488727058601333
| 10> C -0.4935540709420149 0.46765791798281714 0.5729344325440917
| 11> C -1.9199651015822468 0.37546265267794476 0.26588205220553546
| 12> C -2.325535321439909 -0.2323796289906894 -0.9333979797222232
| 13> C -3.6797983816352655 -0.34059628053441937 -1.264388808762328
| 14> C -4.643205554589201 0.15695442178006047 -0.3922747112803357
| 15> Br -6.475194082406711 0.012946623292687101 -0.8332869846893138
| 16> C -4.264679665652509 0.7576600043284013 0.805856840631257
| 17> C -2.908063121786075 0.8649034416493493 1.1340343014433514
| 18> C 0.06007290280125359 1.3248222172331359 1.5032924918965311
| 19> S 1.7605699212726704 1.122647663240857 1.5611647338275674
| 20> H 2.643110157177783 -2.5256383766515786 1.1016691851024842
| 21> H 3.756421120830434 -1.3051168271209497 1.737381689421545
| 22> H 4.262805706835921 -2.343274286416699 0.40351809173795555
| 23> H 2.5868759857856456 -1.3622318267753784 -1.0917520089468051
| 24> H 4.376402153418503 1.4603657670313877 -1.9019142886405056
| 25> H -1.5811277175202691 -0.626732508061158 -1.62365021635153
| 26> H -3.965223605712412 -0.8140314453670398 -2.199886834663901
| 27> H -5.01389774287234 1.1417239548822729 1.493357165464438
| 28> H -2.6464391310829294 1.3245021154104244 2.083165584810269
| 29> H -0.42210578903665835 2.050765516406271 2.140593331960422
| 30> *
| 31>
| 32>                          ****END OF INPUT****

CARTESIAN COORDINATES (ANGSTROEM)
---------------------------------
  C      3.410266   -1.795702    0.820557
  C      2.866228   -0.793660   -0.194717
  C      3.926428    0.196753   -0.618696
  O      4.988849    0.419363   -0.058830
  O      3.615671    0.860275   -1.752212
  C      1.654575   -0.072385    0.324068
  N      0.430515   -0.325054   -0.094887
  C     -0.493554    0.467658    0.572934
  C     -1.919965    0.375463    0.265882
  C     -2.325535   -0.232380   -0.933398
  C     -3.679798   -0.340596   -1.264389
  C     -4.643206    0.156954   -0.392275
  Br    -6.475194    0.012947   -0.833287
  C     -4.264680    0.757660    0.805857
  C     -2.908063    0.864903    1.134034
  C      0.060073    1.324822    1.503292
  S      1.760570    1.122648    1.561165
  H      2.643110   -2.525638    1.101669
  H      3.756421   -1.305117    1.737382
  H      4.262806   -2.343274    0.403518
  H      2.586876   -1.362232   -1.091752
  H      4.376402    1.460366   -1.901914
  H     -1.581128   -0.626733   -1.623650
  H     -3.965224   -0.814031   -2.199887
  H     -5.013898    1.141724    1.493357
  H     -2.646439    1.324502    2.083166
  H     -0.422106    2.050766    2.140593

 Total Charge           Charge          ....    0
 Multiplicity           Mult            ....    1
 Number of Electrons    NEL             ....  156
 Basis Dimension        Dim             ....  310

ORBITAL ENERGIES
----------------

  NO   OCC          E(Eh)            E(eV)
   0   2.0000    -489.973761    -13332.8639
   1   2.0000     -91.974497     -2502.7533
   2   2.0000     -65.142200     -1772.6094
   3   2.0000     -58.514244     -1592.2535
   4   2.0000     -58.512661     -1592.2105
   5   2.0000     -58.512640     -1592.2099
   6   2.0000     -20.617406      -561.0281
   7   2.0000     -20.558855      -559.4349
   8   2.0000     -15.585515      -424.1034
   9   2.0000     -11.405400      -310.3567
  10   2.0000     -11.334262      -308.4210
  11   2.0000     -11.301889      -307.5400
  12   2.0000     -11.295137      -307.3563
  13   2.0000     -11.283335      -307.0352
  14   2.0000     -11.279913      -306.9420
  15   2.0000     -11.264283      -306.5167
  16   2.0000     -11.261178      -306.4322
  17   2.0000     -11.259959      -306.3991
  18   2.0000     -11.257731      -306.3384
  19   2.0000     -11.254125      -306.2403
  20   2.0000     -11.246743      -306.0394
  21   2.0000      -9.833892      -267.5938
  22   2.0000      -9.011746      -245.2221
  23   2.0000      -7.450706      -202.7440
  24   2.0000      -7.441506      -202.4937
  25   2.0000      -7.441451      -202.4922
  26   2.0000      -6.699129      -182.2926
  27   2.0000      -6.698048      -182.2631
  28   2.0000      -6.696325      -182.2163
  29   2.0000      -3.193418       -86.8973
  30   2.0000      -3.189233       -86.7835
  31   2.0000      -3.189103       -86.7799
  32   2.0000      -3.179075       -86.5070
  33   2.0000      -3.179072       -86.5069
  34   2.0000      -1.460684       -39.7472
  35   2.0000      -1.346707       -36.6458
  36   2.0000      -1.289334       -35.0846
  37   2.0000      -1.171852       -31.8877
  38   2.0000      -1.113427       -30.2979
  39   2.0000      -1.079258       -29.3681
  40   2.0000      -1.077638       -29.3240
  41   2.0000      -1.023098       -27.8399
  42   2.0000      -1.011227       -27.5169
  43   2.0000      -0.953137       -25.9362
  44   2.0000      -0.921314       -25.0702
  45   2.0000      -0.855225       -23.2719
  46   2.0000      -0.834404       -22.7053
  47   2.0000      -0.822869       -22.3914
  48   2.0000      -0.781434       -21.2639
  49   2.0000      -0.755282       -20.5523
  50   2.0000      -0.725437       -19.7401
  51   2.0000      -0.710307       -19.3284
  52   2.0000      -0.698165       -18.9980
  53   2.0000      -0.679461       -18.4891
  54   2.0000      -0.648227       -17.6392
  55   2.0000      -0.642614       -17.4864
  56   2.0000      -0.628225       -17.0949
  57   2.0000      -0.611043       -16.6273
  58   2.0000      -0.608241       -16.5511
  59   2.0000      -0.605398       -16.4737
  60   2.0000      -0.583484       -15.8774
  61   2.0000      -0.580295       -15.7906
  62   2.0000      -0.554154       -15.0793
  63   2.0000      -0.543413       -14.7870
  64   2.0000      -0.533502       -14.5173
  65   2.0000      -0.527805       -14.3623
  66   2.0000      -0.524298       -14.2669
  67   2.0000      -0.514697       -14.0056
  68   2.0000      -0.498639       -13.5687
  69   2.0000      -0.489347       -13.3158
  70   2.0000      -0.468448       -12.7471
  71   2.0000      -0.447450       -12.1757
  72   2.0000      -0.445278       -12.1166
  73   2.0000      -0.415598       -11.3090
  74   2.0000      -0.404679       -11.0119
  75   2.0000      -0.375043       -10.2054
  76   2.0000      -0.354524        -9.6471
  77   2.0000      -0.306297        -8.3348
  78   0.0000       0.073281         1.9941
  79   0.0000       0.107718         2.9312
  80   0.0000       0.119608         3.2547
  81   0.0000       0.152072         4.1381
  82   0.0000       0.158799         4.3211

MULLIKEN ATOMIC CHARGES
-----------------------
   0 C :    0.039611
   1 C :   -0.149965
   2 C :    0.479336
   3 O :   -0.401803
   4 O :   -0.351821
   5 C :    0.005277
   6 N :   -0.334585
   7 C :    0.158819
   8 C :   -0.067235
   9 C :    0.001899
  10 C :    0.007344
  11 C :   -0.095294
  12 Br:   -0.042228
  13 C :    0.006782
  14 C :   -0.022095
  15 C :   -0.127760
  16 S :    0.113379
  17 H :    0.054521
  18 H :    0.055488
  19 H :    0.054051
  20 H :    0.096667
  21 H :    0.229405
  22 H :    0.066929
  23 H :    0.052641
  24 H :    0.050895
  25 H :    0.039290
  26 H :    0.080453
Sum of atomic charges:    0.0000000

LOEWDIN ATOMIC CHARGES
----------------------
   0 C :   -0.012952
   1 C :   -0.063146
   2 C :    0.205176
   3 O :   -0.273630
   4 O :   -0.104977
   5 C :   -0.081851
   6 N :   -0.164172
   7 C :   -0.003052
   8 C :   -0.036746
   9 C :    0.007062
  10 C :   -0.027947
  11 C :   -0.120575
  12 Br:    0.082285
  13 C :   -0.029091
  14 C :   -0.006722
  15 C :   -0.207808
  16 S :    0.420651
  17 H :    0.027388
  18 H :    0.025203
  19 H :    0.028000
  20 H :    0.056102
  21 H :    0.117852
  22 H :    0.038483
  23 H :    0.034444
  24 H :    0.033809
  25 H :    0.028511
  26 H :    0.027701

  Mayer bond orders larger than 0.100000
B(  0-C ,  1-C ) :   1.0382 B(  0-C , 17-H ) :   0.9837 B(  0-C , 18-H ) :   0.9740
B(  0-C , 19-H ) :   0.9844 B(  1-C ,  2-C ) :   0.9098 B(  1-C ,  5-C ) :   0.9684
B(  1-C , 20-H ) :   0.9447 B(  2-C ,  3-O ) :   1.9987 B(  2-C ,  4-O ) :   1.1466
B(  4-O , 21-H ) :   0.9410 B(  5-C ,  6-N ) :   1.7214 B(  5-C , 16-S ) :   1.1641
B(  6-N ,  7-C ) :   1.2537 B(  7-C ,  8-C ) :   1.0377 B(  7-C , 15-C ) :   1.6485
B(  8-C ,  9-C ) :   1.4037 B(  8-C , 14-C ) :   1.3979 B(  9-C , 10-C ) :   1.4337
B(  9-C , 22-H ) :   0.9969 B( 10-C , 11-C ) :   1.4090 B( 10-C , 23-H ) :   1.0001
B( 11-C , 12-Br) :   0.9921 B( 11-C , 13-C ) :   1.4078 B( 13-C , 14-C ) :   1.4535
B( 13-C , 24-H ) :   0.9970 B( 14-C , 25-H ) :   0.9968 B( 15-C , 16-S ) :   1.1243
B( 15-C , 26-H ) :   0.9662

FINAL SINGLE POINT ENERGY     -3633.430497282063

DIPOLE MOMENT
-------------
                                X             Y             Z
Electronic contribution:    -63.74057       3.14375      -9.44935
Nuclear contribution   :     64.08675      -2.96985       9.68131
                        -----------------------------------------
Total Dipole Moment    :      0.34618       0.17391       0.23196
                        -----------------------------------------
Magnitude (a.u.)       :      0.45154
Magnitude (Debye)      :      1.14773

Rotational constants in cm-1:     0.038573     0.003306     0.003189
Rotational constants in MHz :  1156.403035    99.099414    95.602402

                             ****ORCA TERMINATED NORMALLY****
TOTAL RUN TIME: 0 days 0 hours 0 minutes 13 seconds 440 msec
