                         Program Version 5.0.3 -  RELEASE  -
|  1> !RHF def2-SVP TightSCF PAL16
|  2> *xyz 0 1
|  3> C -4.6724603947817105 2.2207946473731863 -2.168716167562279
|  4> C -3.702300349816882 1.5470325683641015 -1.5368045195316484
|  5> C -3.766123934893417 1.1103515937254895 -0.09915767266161338
|  6> C -3.644713196771059 -0.39144352613293754 0.050639146781099764
|  7> C -4.808829959082994 -1.1770174787488317 -0.021433842887743873
|  8> C -4.74016790298992 -2.563470918809059 0.0953619390364232
|  9> C -3.507454628809886 -3.1808639629098705 0.27874409760166957
| 10> C -2.3403504138591007 -2.4149429007101264 0.34126494683501823
| 11> C -2.3973420142740256 -1.0218467575136163 0.22421807221801135
| 12> O -1.3080329580782837 -0.1917632864381308 0.2639122035531
| 13> C -0.0159945292960403 -0.7938185919844252 0.40801739307978774
| 14> C 1.0188855800319592 0.33758722960056686 0.4047920386809227
| 15> O 0.9675950388782775 1.0200267421858535 -0.8619667204691311
| 16> C 2.4399531545110325 -0.21301996683148555 0.6180339230360756
| 17> N 3.4014381710236727 0.8951075433543845 0.680716074809016
| 18> C 4.797734619980011 0.4551661109099299 0.720094788133323
| 19> C 5.305719966426124 0.0029134060025466954 -0.6504710147668316
| 20> C 5.64053824892299 1.6298402814693522 1.2205753109201163
| 21> H -5.594234763281141 2.4997712418338165 -1.6682072292773913
| 22> H -4.5605011369209745 2.5059382758419355 -3.2103574359926172
| 23> H -2.796152588149066 1.2916415710992317 -2.0823406666255346
| 24> H -4.703249579037634 1.4408219073874384 0.36811253225942275
| 25> H -2.973456932605072 1.616125545455227 0.4650531987330772
| 26> H -5.776825729456962 -0.7042580688290452 -0.1743434155967714
| 27> H -5.647007046180967 -3.159826216777607 0.03945648358448211
| 28> H -3.4515532998171676 -4.262749587407571 0.36880136487258064
| 29> H -1.402241661945124 -2.9414359969869666 0.47949031534979847
| 30> H 0.03926112618571643 -1.3427860984102735 1.355046012334119
| 31> H 0.16847718186825927 -1.4624154204483464 -0.44155020023241787
| 32> H 0.7681575705953319 1.0753981968188435 1.1766629181632553
| 33> H 0.031464317081163026 1.2680902777821372 -0.9847145080679635
| 34> H 2.68428632070528 -0.8801208994367051 -0.2156810353652176
| 35> H 2.4808231911173917 -0.787896635745915 1.5498731989321506
| 36> H 3.2369838927592554 1.498349954367901 -0.1308178967605481
| 37> H 4.911815618896975 -0.365661874160492 1.438821521894938
| 38> H 5.189664513348086 0.792074367135054 -1.401883572663504
| 39> H 6.369431574234643 -0.25472548483538354 -0.5999520707404383
| 40> H 4.774005838127684 -0.8845690018422947 -1.006785195334654
| 41> H 6.694327681345694 1.3419910180025032 1.3031478902560176
| 42> H 5.579249474243569 2.489351536232069 0.543150403219133
| 43> H 5.309179939763433 1.9562586600160687 2.212901214124229
| 44> *
| 45>
| 46>                          ****END OF INPUT****

CARTESIAN COORDINATES (ANGSTROEM)
---------------------------------
  C     -4.672460    2.220795   -2.168716
  C     -3.702300    1.547033   -1.536805
  C     -3.766124    1.110352   -0.099158
  C     -3.644713   -0.391444    0.050639
  C     -4.808830   -1.177017   -0.021434
  C     -4.740168   -2.563471    0.095362
  C     -3.507455   -3.180864    0.278744
  C     -2.340350   -2.414943    0.341265
  C     -2.397342   -1.021847    0.224218
  O     -1.308033   -0.191763    0.263912
  C     -0.015995   -0.793819    0.408017
  C      1.018886    0.337587    0.404792
  O      0.967595    1.020027   -0.861967
  C      2.439953   -0.213020    0.618034
  N      3.401438    0.895108    0.680716
  C      4.797735    0.455166    0.720095
  C      5.305720    0.002913   -0.650471
  C      5.640538    1.629840    1.220575
  H     -5.594235    2.499771   -1.668207
  H     -4.560501    2.505938   -3.210357
  H     -2.796153    1.291642   -2.082341
  H     -4.703250    1.440822    0.368113
  H     -2.973457    1.616126    0.465053
  H     -5.776826   -0.704258   -0.174343
  H     -5.647007   -3.159826    0.039456
  H     -3.451553   -4.262750    0.368801
  H     -1.402242   -2.941436    0.479490
  H      0.039261   -1.342786    1.355046
  H      0.168477   -1.462415   -0.441550
  H      0.768158    1.075398    1.176663
  H      0.031464    1.268090   -0.984715
  H      2.684286   -0.880121   -0.215681
  H      2.480823   -0.787897    1.549873
  H      3.236984    1.498350   -0.130818
  H      4.911816   -0.365662    1.438822
  H      5.189665    0.792074   -1.401884
  H      6.369432   -0.254725   -0.599952
  H      4.774006   -0.884569   -1.006785
  H      6.694328    1.341991    1.303148
  H      5.579249    2.489352    0.543150
  H      5.309180    1.956259    2.212901

 Total Charge           Charge          ....    0
 Multiplicity           Mult            ....    1
 Number of Electrons    NEL             ....  136
 Basis Dimension        Dim             ....  367

ORBITAL ENERGIES
----------------

  NO   OCC          E(Eh)            E(eV)
   0   2.0000     -20.590361      -560.2922
   1   2.0000     -20.549865      -559.1903
   2   2.0000     -15.531135      -422.6237
   3   2.0000     -11.308857      -307.7296
   4   2.0000     -11.299270      -307.4688
   5   2.0000     -11.287338      -307.1441
   6   2.0000     -11.256516      -306.3054
   7   2.0000     -11.251565      -306.1707
   8   2.0000     -11.244389      -305.9754
   9   2.0000     -11.243412      -305.9488
  10   2.0000     -11.242261      -305.9175
  11   2.0000     -11.241316      -305.8917
  12   2.0000     -11.238858      -305.8249
  13   2.0000     -11.235776      -305.7410
  14   2.0000     -11.233375      -305.6757
  15   2.0000     -11.227078      -305.5043
  16   2.0000     -11.216235      -305.2093
  17   2.0000     -11.211255      -305.0738
  18   2.0000      -1.403689       -38.1963
  19   2.0000      -1.335465       -36.3399
  20   2.0000      -1.191081       -32.4110
  21   2.0000      -1.145963       -31.1832
  22   2.0000      -1.072142       -29.1745
  23   2.0000      -1.047045       -28.4916
  24   2.0000      -1.017197       -27.6793
  25   2.0000      -1.008698       -27.4481
  26   2.0000      -0.981387       -26.7049
  27   2.0000      -0.920411       -25.0457
  28   2.0000      -0.916996       -24.9527
  29   2.0000      -0.900704       -24.5094
  30   2.0000      -0.824625       -22.4392
  31   2.0000      -0.804534       -21.8925
  32   2.0000      -0.797796       -21.7091
  33   2.0000      -0.781701       -21.2712
  34   2.0000      -0.754959       -20.5435
  35   2.0000      -0.726250       -19.7623
  36   2.0000      -0.703196       -19.1349
  37   2.0000      -0.686272       -18.6744
  38   2.0000      -0.666410       -18.1339
  39   2.0000      -0.658863       -17.9286
  40   2.0000      -0.644577       -17.5398
  41   2.0000      -0.627997       -17.0887
  42   2.0000      -0.622504       -16.9392
  43   2.0000      -0.615170       -16.7396
  44   2.0000      -0.603521       -16.4226
  45   2.0000      -0.597036       -16.2462
  46   2.0000      -0.592261       -16.1163
  47   2.0000      -0.578140       -15.7320
  48   2.0000      -0.574834       -15.6420
  49   2.0000      -0.554666       -15.0932
  50   2.0000      -0.545317       -14.8388
  51   2.0000      -0.536101       -14.5880
  52   2.0000      -0.534103       -14.5337
  53   2.0000      -0.527182       -14.3454
  54   2.0000      -0.524682       -14.2773
  55   2.0000      -0.508654       -13.8412
  56   2.0000      -0.507538       -13.8108
  57   2.0000      -0.498848       -13.5743
  58   2.0000      -0.489281       -13.3140
  59   2.0000      -0.488187       -13.2842
  60   2.0000      -0.479513       -13.0482
  61   2.0000      -0.472381       -12.8541
  62   2.0000      -0.464229       -12.6323
  63   2.0000      -0.444589       -12.0979
  64   2.0000      -0.363659        -9.8957
  65   2.0000      -0.361412        -9.8345
  66   2.0000      -0.336824        -9.1655
  67   2.0000      -0.316212        -8.6046
  68   0.0000       0.121275         3.3001
  69   0.0000       0.141596         3.8530
  70   0.0000       0.167655         4.5621
  71   0.0000       0.174700         4.7538
  72   0.0000       0.181048         4.9266

MULLIKEN ATOMIC CHARGES
-----------------------
   0 C :   -0.080515
   1 C :   -0.120326
   2 C :    0.150605
   3 C :   -0.249164
   4 C :    0.007968
   5 C :   -0.055820
   6 C :   -0.000219
   7 C :   -0.148648
   8 C :    0.353142
   9 O :   -0.598717
  10 C :    0.274370
  11 C :    0.178212
  12 O :   -0.482569
  13 C :    0.205622
  14 N :   -0.495979
  15 C :   -0.031175
  16 C :   -0.002107
  17 C :    0.030685
  18 H :    0.043773
  19 H :    0.053798
  20 H :    0.044811
  21 H :    0.034307
  22 H :    0.056551
  23 H :    0.034821
  24 H :    0.037249
  25 H :    0.042074
  26 H :    0.037427
  27 H :    0.035688
  28 H :    0.041318
  29 H :    0.039083
  30 H :    0.213780
  31 H :    0.007110
  32 H :    0.022518
  33 H :    0.143319
  34 H :    0.024791
  35 H :    0.025710
  36 H :    0.024860
  37 H :    0.029130
  38 H :    0.017772
  39 H :    0.018539
  40 H :    0.036204
Sum of atomic charges:    0.0000000

LOEWDIN ATOMIC CHARGES
----------------------
   0 C :   -0.064849
   1 C :   -0.012403
   2 C :   -0.002910
   3 C :   -0.054456
   4 C :   -0.002351
   5 C :   -0.048274
   6 C :   -0.011955
   7 C :   -0.078776
   8 C :    0.094242
   9 O :   -0.205334
  10 C :    0.125557
  11 C :    0.103281
  12 O :   -0.207435
  13 C :    0.058987
  14 N :   -0.156992
  15 C :    0.035041
  16 C :   -0.043561
  17 C :   -0.032112
  18 H :    0.016737
  19 H :    0.021342
  20 H :    0.020638
  21 H :    0.024801
  22 H :    0.029363
  23 H :    0.028184
  24 H :    0.025318
  25 H :    0.028354
  26 H :    0.026224
  27 H :    0.010959
  28 H :    0.012478
  29 H :    0.011931
  30 H :    0.086769
  31 H :   -0.003812
  32 H :    0.011654
  33 H :    0.058200
  34 H :    0.009487
  35 H :    0.015323
  36 H :    0.015739
  37 H :    0.012163
  38 H :    0.011045
  39 H :    0.013353
  40 H :    0.018053

  Mayer bond orders larger than 0.100000
B(  0-C ,  1-C ) :   2.0088 B(  0-C , 18-H ) :   0.9795 B(  0-C , 19-H ) :   0.9770
B(  1-C ,  2-C ) :   0.9957 B(  1-C , 20-H ) :   0.9764 B(  2-C ,  3-C ) :   0.9897
B(  2-C , 21-H ) :   0.9774 B(  2-C , 22-H ) :   0.9616 B(  3-C ,  4-C ) :   1.4440
B(  3-C ,  8-C ) :   1.4190 B(  4-C ,  5-C ) :   1.4123 B(  4-C , 23-H ) :   1.0020
B(  5-C ,  6-C ) :   1.4270 B(  5-C , 24-H ) :   1.0020 B(  6-C ,  7-C ) :   1.3920
B(  6-C , 25-H ) :   0.9980 B(  7-C ,  8-C ) :   1.3746 B(  7-C , 26-H ) :   1.0065
B(  8-C ,  9-O ) :   0.9777 B(  9-O , 10-C ) :   0.8504 B( 10-C , 11-C ) :   1.0242
B( 10-C , 27-H ) :   0.9693 B( 10-C , 28-H ) :   0.9620 B( 11-C , 12-O ) :   0.9138
B( 11-C , 13-C ) :   1.0261 B( 11-C , 29-H ) :   0.9616 B( 12-O , 30-H ) :   0.9604
B( 13-C , 14-N ) :   0.9721 B( 13-C , 31-H ) :   0.9530 B( 13-C , 32-H ) :   0.9700
B( 14-N , 15-C ) :   0.9314 B( 14-N , 33-H ) :   0.9450 B( 15-C , 16-C ) :   1.0210
B( 15-C , 17-C ) :   1.0350 B( 15-C , 34-H ) :   0.9678 B( 16-C , 35-H ) :   0.9767
B( 16-C , 36-H ) :   0.9821 B( 16-C , 37-H ) :   0.9842 B( 17-C , 38-H ) :   0.9851
B( 17-C , 39-H ) :   0.9785 B( 17-C , 40-H ) :   0.9853

FINAL SINGLE POINT ENERGY      -784.967945573992

DIPOLE MOMENT
-------------
                                X             Y             Z
Electronic contribution:    -21.08193      -5.50988       0.59348
Nuclear contribution   :     20.98149       4.73965      -0.40683
                        -----------------------------------------
Total Dipole Moment    :     -0.10044      -0.77023       0.18665
                        -----------------------------------------
Magnitude (a.u.)       :      0.79886
Magnitude (Debye)      :      2.03055

Rotational constants in cm-1:     0.026356     0.004928     0.004347
Rotational constants in MHz :   790.134863   147.739786   130.326713

                             ****ORCA TERMINATED NORMALLY****
TOTAL RUN TIME: 0 days 0 hours 0 minutes 16 seconds 567 msec
