                         Program Version 5.0.3 -  RELEASE  -
|  1> !RHF def2-SVP TightSCF PAL16
|  2> *xyz 0 1
|  3> C -2.247881677592282 3.8492079659366922 1.822820805759548
|  4> C -0.8729850281865356 3.6367668052652893 1.8609659649629022
|  5> C -0.3055585636515478 2.5969446584367404 1.1194777115172765
|  6> C -1.0941092799551155 1.748919750707089 0.3206708929655081
|  7> C -0.4834043395940984 0.5963524547315895 -0.4930892204827898
|  8> C -0.6352902698020434 -0.7976933030562917 0.1424581435548041
|  9> C -0.10196416607801677 -1.0677744034809047 1.41948712499579
| 10> C -0.22050462677818833 -2.3239326126024626 2.0209973278959135
| 11> C -0.8880983151052407 -3.348556892091193 1.3602975404217417
| 12> C -1.4425679395225364 -3.111606575286404 0.10715138025198409
| 13> C -1.3218197887313743 -1.8511813678205342 -0.4873687558280284
| 14> C -0.5654979023771687 0.7560627587497059 -2.008261036926928
| 15> C 0.7711662965601583 0.8885735784869057 -1.3354026335260125
| 16> C 1.806018127085805 -0.12301547797100369 -1.5931470603866702
| 17> N 1.9405125280269004 -0.6851261271785708 -2.7603066170150057
| 18> C 3.0807467501286987 -1.6243156162065342 -2.5458827426991104
| 19> C 3.309082029822536 -1.694121639918271 -1.0287201403323538
| 20> N 2.654885241844617 -0.48176579917863466 -0.5868674772498936
| 21> C -2.4808481752648084 1.9846822988750523 0.3062215045945815
| 22> C -3.0536057253156446 3.022201395350899 1.0460703429224159
| 23> H -2.6913351544984065 4.656860511223412 2.3989029675089766
| 24> H -0.24003225449677654 4.279175121656106 2.467382558229206
| 25> H 0.770595021861314 2.446101552719636 1.1654469437082593
| 26> H 0.4061638705278323 -0.27580436488147003 1.9659420152948084
| 27> H 0.19911848306408478 -2.495294501575196 3.0086975677173178
| 28> H -0.9871421665064479 -4.325897711184402 1.8246474370393597
| 29> H -1.9755825474104338 -3.90420702210813 -0.4116851717552899
| 30> H -1.7768144312986178 -1.6976289078960756 -1.462757601588887
| 31> H -1.0024266719669224 1.6601586237480122 -2.4194200040947846
| 32> H -0.7171504412028977 -0.1053125611367224 -2.6479447038392716
| 33> H 1.1740652116455303 1.8965227494645762 -1.3053953695328737
| 34> H 2.8477457908709662 -2.611113626958281 -2.9575906138415644
| 35> H 3.9646363214263403 -1.230074775032137 -3.0597696422330904
| 36> H 2.8104014624377736 -2.570287718735918 -0.6004734196851406
| 37> H 4.3700860898946665 -1.7140346127715462 -0.7666499748256693
| 38> H 2.2521668266651846 -0.5023706347343846 0.3412083510993025
| 39> H -3.1244695392356308 1.3422081053392487 -0.2915884505218816
| 40> H -4.12830104729241 3.1803779211123406 1.015202415676275
| 41> *
| 42>
| 43>                          ****END OF INPUT****

CARTESIAN COORDINATES (ANGSTROEM)
---------------------------------
  C     -2.247882    3.849208    1.822821
  C     -0.872985    3.636767    1.860966
  C     -0.305559    2.596945    1.119478
  C     -1.094109    1.748920    0.320671
  C     -0.483404    0.596352   -0.493089
  C     -0.635290   -0.797693    0.142458
  C     -0.101964   -1.067774    1.419487
  C     -0.220505   -2.323933    2.020997
  C     -0.888098   -3.348557    1.360298
  C     -1.442568   -3.111607    0.107151
  C     -1.321820   -1.851181   -0.487369
  C     -0.565498    0.756063   -2.008261
  C      0.771166    0.888574   -1.335403
  C      1.806018   -0.123015   -1.593147
  N      1.940513   -0.685126   -2.760307
  C      3.080747   -1.624316   -2.545883
  C      3.309082   -1.694122   -1.028720
  N      2.654885   -0.481766   -0.586867
  C     -2.480848    1.984682    0.306222
  C     -3.053606    3.022201    1.046070
  H     -2.691335    4.656861    2.398903
  H     -0.240032    4.279175    2.467383
  H      0.770595    2.446102    1.165447
  H      0.406164   -0.275804    1.965942
  H      0.199118   -2.495295    3.008698
  H     -0.987142   -4.325898    1.824647
  H     -1.975583   -3.904207   -0.411685
  H     -1.776814   -1.697629   -1.462758
  H     -1.002427    1.660159   -2.419420
  H     -0.717150   -0.105313   -2.647945
  H      1.174065    1.896523   -1.305395
  H      2.847746   -2.611114   -2.957591
  H      3.964636   -1.230075   -3.059770
  H      2.810401   -2.570288   -0.600473
  H      4.370086   -1.714035   -0.766650
  H      2.252167   -0.502371    0.341208
  H     -3.124470    1.342208   -0.291588
  H     -4.128301    3.180378    1.015202

 Total Charge           Charge          ....    0
 Multiplicity           Mult            ....    1
 Number of Electrons    NEL             ....  140
 Basis Dimension        Dim             ....  370

ORBITAL ENERGIES
----------------

  NO   OCC          E(Eh)            E(eV)
   0   2.0000     -15.564002      -423.5180
   1   2.0000     -15.521793      -422.3695
   2   2.0000     -11.299344      -307.4708
   3   2.0000     -11.270559      -306.6875
   4   2.0000     -11.258738      -306.3658
   5   2.0000     -11.255581      -306.2799
   6   2.0000     -11.253183      -306.2147
   7   2.0000     -11.246628      -306.0363
   8   2.0000     -11.245459      -306.0045
   9   2.0000     -11.245001      -305.9920
  10   2.0000     -11.244494      -305.9782
  11   2.0000     -11.243473      -305.9505
  12   2.0000     -11.242320      -305.9191
  13   2.0000     -11.242230      -305.9166
  14   2.0000     -11.241737      -305.9032
  15   2.0000     -11.241400      -305.8940
  16   2.0000     -11.241024      -305.8838
  17   2.0000     -11.240211      -305.8617
  18   2.0000     -11.238926      -305.8267
  19   2.0000     -11.234563      -305.7080
  20   2.0000      -1.290988       -35.1296
  21   2.0000      -1.174567       -31.9616
  22   2.0000      -1.142298       -31.0835
  23   2.0000      -1.132122       -30.8066
  24   2.0000      -1.121641       -30.5214
  25   2.0000      -1.023769       -27.8582
  26   2.0000      -1.008825       -27.4515
  27   2.0000      -1.006498       -27.3882
  28   2.0000      -1.004486       -27.3335
  29   2.0000      -0.989229       -26.9183
  30   2.0000      -0.872008       -23.7285
  31   2.0000      -0.852076       -23.1862
  32   2.0000      -0.825211       -22.4551
  33   2.0000      -0.820183       -22.3183
  34   2.0000      -0.818619       -22.2758
  35   2.0000      -0.815028       -22.1780
  36   2.0000      -0.766540       -20.8586
  37   2.0000      -0.747217       -20.3328
  38   2.0000      -0.723315       -19.6824
  39   2.0000      -0.703863       -19.1531
  40   2.0000      -0.684790       -18.6341
  41   2.0000      -0.658435       -17.9169
  42   2.0000      -0.651364       -17.7245
  43   2.0000      -0.635266       -17.2865
  44   2.0000      -0.631970       -17.1968
  45   2.0000      -0.625742       -17.0273
  46   2.0000      -0.615184       -16.7400
  47   2.0000      -0.601933       -16.3794
  48   2.0000      -0.590928       -16.0800
  49   2.0000      -0.587653       -15.9909
  50   2.0000      -0.575725       -15.6663
  51   2.0000      -0.555531       -15.1168
  52   2.0000      -0.538706       -14.6589
  53   2.0000      -0.526436       -14.3250
  54   2.0000      -0.519722       -14.1424
  55   2.0000      -0.518185       -14.1005
  56   2.0000      -0.509390       -13.8612
  57   2.0000      -0.505561       -13.7570
  58   2.0000      -0.503148       -13.6913
  59   2.0000      -0.496786       -13.5182
  60   2.0000      -0.482457       -13.1283
  61   2.0000      -0.475348       -12.9349
  62   2.0000      -0.435664       -11.8550
  63   2.0000      -0.423377       -11.5207
  64   2.0000      -0.411961       -11.2100
  65   2.0000      -0.346678        -9.4336
  66   2.0000      -0.342912        -9.3311
  67   2.0000      -0.339667        -9.2428
  68   2.0000      -0.332972        -9.0606
  69   2.0000      -0.322494        -8.7755
  70   0.0000       0.112076         3.0497
  71   0.0000       0.118818         3.2332
  72   0.0000       0.125762         3.4222
  73   0.0000       0.139006         3.7826
  74   0.0000       0.173706         4.7268

MULLIKEN ATOMIC CHARGES
-----------------------
   0 C :   -0.034371
   1 C :   -0.034441
   2 C :   -0.026512
   3 C :   -0.060366
   4 C :   -0.211258
   5 C :   -0.037822
   6 C :   -0.040761
   7 C :   -0.036149
   8 C :   -0.032887
   9 C :   -0.033718
  10 C :   -0.013538
  11 C :    0.105613
  12 C :   -0.064092
  13 C :    0.255029
  14 N :   -0.453540
  15 C :    0.143129
  16 C :    0.139478
  17 N :   -0.429345
  18 C :    0.008428
  19 C :   -0.038087
  20 H :    0.041202
  21 H :    0.039978
  22 H :    0.032340
  23 H :    0.038030
  24 H :    0.041532
  25 H :    0.042409
  26 H :    0.042792
  27 H :    0.037839
  28 H :    0.054642
  29 H :    0.075826
  30 H :    0.077729
  31 H :    0.033135
  32 H :    0.036708
  33 H :    0.036822
  34 H :    0.033969
  35 H :    0.153638
  36 H :    0.034423
  37 H :    0.042195
Sum of atomic charges:   -0.0000000

LOEWDIN ATOMIC CHARGES
----------------------
   0 C :   -0.027377
   1 C :   -0.025330
   2 C :   -0.027924
   3 C :   -0.016034
   4 C :   -0.027580
   5 C :   -0.018630
   6 C :   -0.028033
   7 C :   -0.026245
   8 C :   -0.027086
   9 C :   -0.021635
  10 C :   -0.017271
  11 C :    0.012157
  12 C :   -0.027125
  13 C :    0.095590
  14 N :   -0.249564
  15 C :    0.051640
  16 C :    0.057797
  17 N :   -0.097654
  18 C :   -0.012214
  19 C :   -0.023129
  20 H :    0.026328
  21 H :    0.027055
  22 H :    0.021690
  23 H :    0.022474
  24 H :    0.027907
  25 H :    0.026922
  26 H :    0.028624
  27 H :    0.026953
  28 H :    0.024781
  29 H :    0.027088
  30 H :    0.035432
  31 H :    0.011002
  32 H :    0.009891
  33 H :    0.007188
  34 H :    0.010560
  35 H :    0.067406
  36 H :    0.026531
  37 H :    0.027814

  Mayer bond orders larger than 0.100000
B(  0-C ,  1-C ) :   1.4185 B(  0-C , 19-C ) :   1.4046 B(  0-C , 20-H ) :   0.9999
B(  1-C ,  2-C ) :   1.4152 B(  1-C , 21-H ) :   1.0000 B(  2-C ,  3-C ) :   1.4298
B(  2-C , 22-H ) :   1.0001 B(  3-C ,  4-C ) :   0.9814 B(  3-C , 18-C ) :   1.4152
B(  4-C ,  5-C ) :   0.9470 B(  4-C , 11-C ) :   0.9655 B(  4-C , 12-C ) :   0.9475
B(  5-C ,  6-C ) :   1.3997 B(  5-C , 10-C ) :   1.4498 B(  6-C ,  7-C ) :   1.4338
B(  6-C , 23-H ) :   0.9969 B(  7-C ,  8-C ) :   1.4008 B(  7-C , 24-H ) :   1.0013
B(  8-C ,  9-C ) :   1.4193 B(  8-C , 25-H ) :   1.0000 B(  9-C , 10-C ) :   1.4152
B(  9-C , 26-H ) :   0.9992 B( 10-C , 27-H ) :   0.9973 B( 11-C , 12-C ) :   0.9696
B( 11-C , 28-H ) :   0.9680 B( 11-C , 29-H ) :   0.9631 B( 12-C , 13-C ) :   0.9627
B( 12-C , 30-H ) :   0.9432 B( 13-C , 14-N ) :   1.9114 B( 13-C , 17-N ) :   1.0974
B( 14-N , 15-C ) :   0.9569 B( 15-C , 16-C ) :   1.0408 B( 15-C , 31-H ) :   0.9804
B( 15-C , 32-H ) :   0.9687 B( 16-C , 17-N ) :   0.9297 B( 16-C , 33-H ) :   0.9775
B( 16-C , 34-H ) :   0.9765 B( 17-N , 35-H ) :   0.9446 B( 18-C , 19-C ) :   1.4300
B( 18-C , 36-H ) :   1.0020 B( 19-C , 37-H ) :   1.0002

FINAL SINGLE POINT ENERGY      -800.376040577086

DIPOLE MOMENT
-------------
                                X             Y             Z
Electronic contribution:     -3.08202       2.83187       1.15189
Nuclear contribution   :      2.97813      -3.10177      -0.08862
                        -----------------------------------------
Total Dipole Moment    :     -0.10389      -0.26990       1.06327
                        -----------------------------------------
Magnitude (a.u.)       :      1.10190
Magnitude (Debye)      :      2.80080

Rotational constants in cm-1:     0.016817     0.008681     0.006997
Rotational constants in MHz :   504.157234   260.243804   209.758485

                             ****ORCA TERMINATED NORMALLY****
TOTAL RUN TIME: 0 days 0 hours 0 minutes 22 seconds 776 msec
