                         Program Version 5.0.3 -  RELEASE  -
|  1> !RHF def2-SVP TightSCF PAL16
|  2> *xyz 0 1
|  3> C -4.079489022066845 0.5360804856369301 -2.9269160232272164
|  4> C -4.0397688581440825 0.006764233209377567 -1.5017619835798315
|  5> C -5.457871206949396 -0.24124690010122896 -0.987995555361007
|  6> O -3.2883136563401396 -1.200413947692347 -1.469525014955115
|  7> C -2.6884903906312814 -1.2122955769004122 -0.17554673387918054
|  8> C -1.3183419684989715 -1.8451112937299898 -0.22541726561025469
|  9> C -0.39952031998365084 -0.7478793541662364 -0.788875329446555
| 10> C 1.1266171018837097 -1.0670293182830521 -0.6081435236188859
| 11> C 1.4817307708559337 -2.095664025402717 0.48735706405380136
| 12> C 2.9759604545860334 -2.419438997676402 0.5548669112559614
| 13> F 3.1652588600729876 -3.235347331920167 1.6327961561259312
| 14> C 3.8199189846741723 -1.177828174921912 0.6557043450443918
| 15> C 4.742121310257192 -1.0324296335841645 1.6250691634092076
| 16> C 5.541417906101362 0.20490238559374116 1.7622262198239145
| 17> O 6.409603337357931 0.3094221490759743 2.619363583975207
| 18> C 5.253895902336796 1.3108966971554514 0.824524994104766
| 19> C 4.337030927530747 1.1711394363257965 -0.14278336788624302
| 20> C 3.526765256210095 -0.09861893343727063 -0.3862660211083657
| 21> C 4.02237072553581 -0.6152821762769394 -1.7642595709062787
| 22> C 1.979429556172005 0.21332282076689996 -0.4376319631746943
| 23> F 1.7866932819730559 0.9382036345968224 -1.5950662988905688
| 24> C 1.430601645163516 1.0885753931973878 0.74366135661619
| 25> O 2.1685623477324016 0.9399080778764074 1.9585238596321395
| 26> C -0.07239145362894911 0.9082576126580509 1.05451489639015
| 27> C -0.9486466799909482 0.5841574327914169 -0.16992017616149868
| 28> C -0.9051479489887586 1.7787534305809336 -1.1504410157982488
| 29> C -2.4626075728163777 0.2532705429224165 0.17943623529073355
| 30> C -2.8408968326644826 0.5205870231852249 1.6404575147227232
| 31> O -2.7191401565386477 -0.3389077287278642 2.520150124427314
| 32> C -3.35143072938005 1.9158408343754312 1.9836110776624905
| 33> O -3.2487409608741697 2.1732567742979807 3.375957372939871
| 34> O -3.400253571020585 0.9628234163360554 -0.6499013978777644
| 35> H -4.590907586747334 -0.16187445150249474 -3.5967485415377936
| 36> H -3.0669667176681457 0.6672400235942896 -3.321662975602769
| 37> H -4.577011098005406 1.5097931160136462 -2.9761308464660257
| 38> H -5.966431252215427 -1.0053840074591056 -1.5860809285772504
| 39> H -5.448356992994963 -0.5958646041828406 0.04907737798895611
| 40> H -6.0492801664015765 0.6807304347777395 -1.0030342883856864
| 41> H -3.354187083382928 -1.7576158693361037 0.5035095036031095
| 42> H -1.2936883327179716 -2.7385910683599417 -0.8575314671247619
| 43> H -1.0404740965898627 -2.120400272025742 0.7962269089351334
| 44> H -0.5825104981030665 -0.6970236240414347 -1.8723282742401284
| 45> H 1.4094821858467026 -1.5347867789976963 -1.561438162577484
| 46> H 1.1498551329355966 -1.7512213768428775 1.4729286953202607
| 47> H 0.9593802705588347 -3.0418437823674176 0.30569865598444146
| 48> H 3.2727064819419143 -2.997514868939389 -0.32653579526827653
| 49> H 4.941404473191006 -1.7996856020537522 2.3648781393451355
| 50> H 5.816969585011132 2.2253350690939713 0.9693162382503469
| 51> H 4.153153828971896 2.0121731712819138 -0.8101034214755628
| 52> H 3.8438723980756304 0.12261098726322717 -2.55655645954271
| 53> H 3.5324922419251337 -1.5427716389086026 -2.0760380529151354
| 54> H 5.101481488501886 -0.8184442082218601 -1.7488629873625425
| 55> H 1.5766082603182905 2.1360252336146717 0.449217674523019
| 56> H 1.6473665374712085 0.4633762129342067 2.6266310399207566
| 57> H -0.42185693987419065 1.8224870108019668 1.5511235249640951
| 58> H -0.1892726457480728 0.11639345487222459 1.8052468915754252
| 59> H -1.4868754357827239 2.621343903708498 -0.7569842160127489
| 60> H -1.316038311655902 1.5107186455972839 -2.1277496653389623
| 61> H 0.0928470627563534 2.1753298335387954 -1.3298191889660234
| 62> H -2.761316957516384 2.6709201347029037 1.4582984919822728
| 63> H -4.400569560378163 1.9953117342315283 1.6879246883747667
| 64> H -3.498803311647923 1.3445641994504929 3.829757806633398
| 65> *
| 66>
| 67>                          ****END OF INPUT****

CARTESIAN COORDINATES (ANGSTROEM)
---------------------------------
  C     -4.079489    0.536080   -2.926916
  C     -4.039769    0.006764   -1.501762
  C     -5.457871   -0.241247   -0.987996
  O     -3.288314   -1.200414   -1.469525
  C     -2.688490   -1.212296   -0.175547
  C     -1.318342   -1.845111   -0.225417
  C     -0.399520   -0.747879   -0.788875
  C      1.126617   -1.067029   -0.608144
  C      1.481731   -2.095664    0.487357
  C      2.975960   -2.419439    0.554867
  F      3.165259   -3.235347    1.632796
  C      3.819919   -1.177828    0.655704
  C      4.742121   -1.032430    1.625069
  C      5.541418    0.204902    1.762226
  O      6.409603    0.309422    2.619364
  C      5.253896    1.310897    0.824525
  C      4.337031    1.171139   -0.142783
  C      3.526765   -0.098619   -0.386266
  C      4.022371   -0.615282   -1.764260
  C      1.979430    0.213323   -0.437632
  F      1.786693    0.938204   -1.595066
  C      1.430602    1.088575    0.743661
  O      2.168562    0.939908    1.958524
  C     -0.072391    0.908258    1.054515
  C     -0.948647    0.584157   -0.169920
  C     -0.905148    1.778753   -1.150441
  C     -2.462608    0.253271    0.179436
  C     -2.840897    0.520587    1.640458
  O     -2.719140   -0.338908    2.520150
  C     -3.351431    1.915841    1.983611
  O     -3.248741    2.173257    3.375957
  O     -3.400254    0.962823   -0.649901
  H     -4.590908   -0.161874   -3.596749
  H     -3.066967    0.667240   -3.321663
  H     -4.577011    1.509793   -2.976131
  H     -5.966431   -1.005384   -1.586081
  H     -5.448357   -0.595865    0.049077
  H     -6.049280    0.680730   -1.003034
  H     -3.354187   -1.757616    0.503510
  H     -1.293688   -2.738591   -0.857531
  H     -1.040474   -2.120400    0.796227
  H     -0.582510   -0.697024   -1.872328
  H      1.409482   -1.534787   -1.561438
  H      1.149855   -1.751221    1.472929
  H      0.959380   -3.041844    0.305699
  H      3.272706   -2.997515   -0.326536
  H      4.941404   -1.799686    2.364878
  H      5.816970    2.225335    0.969316
  H      4.153154    2.012173   -0.810103
  H      3.843872    0.122611   -2.556556
  H      3.532492   -1.542772   -2.076038
  H      5.101481   -0.818444   -1.748863
  H      1.576608    2.136025    0.449218
  H      1.647367    0.463376    2.626631
  H     -0.421857    1.822487    1.551124
  H     -0.189273    0.116393    1.805247
  H     -1.486875    2.621344   -0.756984
  H     -1.316038    1.510719   -2.127750
  H      0.092847    2.175330   -1.329819
  H     -2.761317    2.670920    1.458298
  H     -4.400570    1.995312    1.687925
  H     -3.498803    1.344564    3.829758

 Total Charge           Charge          ....    0
 Multiplicity           Mult            ....    1
 Number of Electrons    NEL             ....  240
 Basis Dimension        Dim             ....  598

ORBITAL ENERGIES
----------------

  NO   OCC          E(Eh)            E(eV)
   0   2.0000     -26.299204      -715.6377
   1   2.0000     -26.286586      -715.2944
   2   2.0000     -20.589300      -560.2633
   3   2.0000     -20.582207      -560.0703
   4   2.0000     -20.581200      -560.0429
   5   2.0000     -20.569525      -559.7252
   6   2.0000     -20.559898      -559.4633
   7   2.0000     -20.523637      -558.4766
   8   2.0000     -11.366812      -309.3067
   9   2.0000     -11.361240      -309.1551
  10   2.0000     -11.350236      -308.8556
  11   2.0000     -11.336967      -308.4946
  12   2.0000     -11.328765      -308.2714
  13   2.0000     -11.321713      -308.0795
  14   2.0000     -11.314476      -307.8825
  15   2.0000     -11.307671      -307.6974
  16   2.0000     -11.305403      -307.6357
  17   2.0000     -11.288089      -307.1645
  18   2.0000     -11.277697      -306.8817
  19   2.0000     -11.273096      -306.7565
  20   2.0000     -11.268819      -306.6402
  21   2.0000     -11.266105      -306.5663
  22   2.0000     -11.260722      -306.4198
  23   2.0000     -11.259353      -306.3826
  24   2.0000     -11.259287      -306.3808
  25   2.0000     -11.251703      -306.1744
  26   2.0000     -11.246684      -306.0378
  27   2.0000     -11.240359      -305.8657
  28   2.0000     -11.239819      -305.8510
  29   2.0000     -11.239636      -305.8461
  30   2.0000     -11.238051      -305.8029
  31   2.0000     -11.232186      -305.6433
  32   2.0000      -1.603337       -43.6290
  33   2.0000      -1.590482       -43.2792
  34   2.0000      -1.453187       -39.5432
  35   2.0000      -1.401309       -38.1316
  36   2.0000      -1.360341       -37.0168
  37   2.0000      -1.349411       -36.7194
  38   2.0000      -1.346187       -36.6316
  39   2.0000      -1.343500       -36.5585
  40   2.0000      -1.180886       -32.1335
  41   2.0000      -1.163072       -31.6488
  42   2.0000      -1.105415       -30.0799
  43   2.0000      -1.080547       -29.4032
  44   2.0000      -1.055854       -28.7313
  45   2.0000      -1.049861       -28.5682
  46   2.0000      -1.024763       -27.8852
  47   2.0000      -1.011512       -27.5246
  48   2.0000      -0.999942       -27.2098
  49   2.0000      -0.983577       -26.7645
  50   2.0000      -0.956535       -26.0286
  51   2.0000      -0.951574       -25.8936
  52   2.0000      -0.935185       -25.4477
  53   2.0000      -0.909387       -24.7457
  54   2.0000      -0.880478       -23.9590
  55   2.0000      -0.865389       -23.5484
  56   2.0000      -0.845440       -23.0056
  57   2.0000      -0.829981       -22.5849
  58   2.0000      -0.817440       -22.2437
  59   2.0000      -0.810831       -22.0638
  60   2.0000      -0.793583       -21.5945
  61   2.0000      -0.774285       -21.0694
  62   2.0000      -0.754329       -20.5263
  63   2.0000      -0.747208       -20.3326
  64   2.0000      -0.733259       -19.9530
  65   2.0000      -0.730938       -19.8898
  66   2.0000      -0.723081       -19.6760
  67   2.0000      -0.714639       -19.4463
  68   2.0000      -0.708793       -19.2872
  69   2.0000      -0.701997       -19.1023
  70   2.0000      -0.687227       -18.7004
  71   2.0000      -0.682517       -18.5722
  72   2.0000      -0.675302       -18.3759
  73   2.0000      -0.672771       -18.3070
  74   2.0000      -0.666069       -18.1247
  75   2.0000      -0.657117       -17.8811
  76   2.0000      -0.655669       -17.8417
  77   2.0000      -0.649349       -17.6697
  78   2.0000      -0.642677       -17.4881
  79   2.0000      -0.635806       -17.3012
  80   2.0000      -0.632928       -17.2228
  81   2.0000      -0.619652       -16.8616
  82   2.0000      -0.615502       -16.7487
  83   2.0000      -0.610647       -16.6165
  84   2.0000      -0.607990       -16.5442
  85   2.0000      -0.596476       -16.2309
  86   2.0000      -0.587100       -15.9758
  87   2.0000      -0.581504       -15.8235
  88   2.0000      -0.579804       -15.7773
  89   2.0000      -0.572438       -15.5768
  90   2.0000      -0.570187       -15.5156
  91   2.0000      -0.565021       -15.3750
  92   2.0000      -0.561027       -15.2663
  93   2.0000      -0.557231       -15.1630
  94   2.0000      -0.553531       -15.0624
  95   2.0000      -0.548790       -14.9333
  96   2.0000      -0.544731       -14.8229
  97   2.0000      -0.542799       -14.7703
  98   2.0000      -0.540597       -14.7104
  99   2.0000      -0.538507       -14.6535
 100   2.0000      -0.532568       -14.4919
 101   2.0000      -0.530430       -14.4337
 102   2.0000      -0.528678       -14.3861
 103   2.0000      -0.522681       -14.2229
 104   2.0000      -0.519546       -14.1376
 105   2.0000      -0.507463       -13.8088
 106   2.0000      -0.503481       -13.7004
 107   2.0000      -0.499518       -13.5926
 108   2.0000      -0.491559       -13.3760
 109   2.0000      -0.481820       -13.1110
 110   2.0000      -0.477877       -13.0037
 111   2.0000      -0.473210       -12.8767
 112   2.0000      -0.469531       -12.7766
 113   2.0000      -0.456752       -12.4288
 114   2.0000      -0.444976       -12.1084
 115   2.0000      -0.437868       -11.9150
 116   2.0000      -0.417828       -11.3697
 117   2.0000      -0.407731       -11.0949
 118   2.0000      -0.377445       -10.2708
 119   2.0000      -0.363843        -9.9007
 120   0.0000       0.082502         2.2450
 121   0.0000       0.109940         2.9916
 122   0.0000       0.131407         3.5758
 123   0.0000       0.150632         4.0989
 124   0.0000       0.161753         4.4015

MULLIKEN ATOMIC CHARGES
-----------------------
   0 C :    0.054895
   1 C :    0.278001
   2 C :    0.055978
   3 O :   -0.582652
   4 C :    0.261717
   5 C :    0.118062
   6 C :   -0.025227
   7 C :   -0.139464
   8 C :   -0.040701
   9 C :    0.549498
  10 F :   -0.371419
  11 C :   -0.134948
  12 C :   -0.071229
  13 C :    0.315032
  14 O :   -0.392030
  15 C :   -0.073498
  16 C :    0.072605
  17 C :   -0.364063
  18 C :    0.090953
  19 C :    0.264487
  20 F :   -0.393344
  21 C :    0.340440
  22 O :   -0.445880
  23 C :    0.109835
  24 C :   -0.613832
  25 C :    0.157179
  26 C :    0.180204
  27 C :    0.172938
  28 O :   -0.405064
  29 C :    0.369537
  30 O :   -0.466910
  31 O :   -0.614976
  32 H :    0.041813
  33 H :    0.034489
  34 H :    0.041687
  35 H :    0.046325
  36 H :    0.021610
  37 H :    0.040640
  38 H :    0.054137
  39 H :    0.054200
  40 H :    0.057420
  41 H :    0.054583
  42 H :    0.048335
  43 H :    0.041016
  44 H :    0.063566
  45 H :    0.039137
  46 H :    0.059319
  47 H :    0.051823
  48 H :    0.061002
  49 H :    0.060632
  50 H :    0.034620
  51 H :    0.056122
  52 H :    0.047576
  53 H :    0.209208
  54 H :    0.057036
  55 H :    0.033690
  56 H :    0.025816
  57 H :    0.024788
  58 H :    0.058876
  59 H :    0.052488
  60 H :    0.057923
  61 H :    0.213999
Sum of atomic charges:   -0.0000000

LOEWDIN ATOMIC CHARGES
----------------------
   0 C :   -0.028534
   1 C :    0.167777
   2 C :   -0.037777
   3 O :   -0.231280
   4 C :    0.113622
   5 C :   -0.009005
   6 C :   -0.000691
   7 C :   -0.026757
   8 C :   -0.021307
   9 C :    0.170498
  10 F :   -0.168961
  11 C :   -0.005963
  12 C :   -0.048539
  13 C :    0.143192
  14 O :   -0.249364
  15 C :   -0.051283
  16 C :    0.035540
  17 C :   -0.045835
  18 C :   -0.007733
  19 C :    0.125917
  20 F :   -0.167012
  21 C :    0.112941
  22 O :   -0.175565
  23 C :   -0.022629
  24 C :   -0.042085
  25 C :   -0.017723
  26 C :    0.059864
  27 C :    0.163248
  28 O :   -0.249683
  29 C :    0.107106
  30 O :   -0.194159
  31 O :   -0.231752
  32 H :    0.027379
  33 H :    0.021053
  34 H :    0.027081
  35 H :    0.027336
  36 H :    0.016132
  37 H :    0.024414
  38 H :    0.014153
  39 H :    0.027609
  40 H :    0.024523
  41 H :    0.023208
  42 H :    0.024029
  43 H :    0.016601
  44 H :    0.028313
  45 H :    0.016841
  46 H :    0.040161
  47 H :    0.036927
  48 H :    0.031921
  49 H :    0.026912
  50 H :    0.011330
  51 H :    0.029296
  52 H :    0.020485
  53 H :    0.086013
  54 H :    0.026905
  55 H :    0.012318
  56 H :    0.015063
  57 H :    0.017234
  58 H :    0.017119
  59 H :    0.027158
  60 H :    0.026922
  61 H :    0.089499

  Mayer bond orders larger than 0.100000
B(  0-C ,  1-C ) :   1.0375 B(  0-C , 32-H ) :   0.9770 B(  0-C , 33-H ) :   0.9751
B(  0-C , 34-H ) :   0.9746 B(  1-C ,  2-C ) :   1.0450 B(  1-C ,  3-O ) :   0.8903
B(  1-C , 31-O ) :   0.8317 B(  2-C , 35-H ) :   0.9758 B(  2-C , 36-H ) :   0.9711
B(  2-C , 37-H ) :   0.9774 B(  3-O ,  4-C ) :   0.8542 B(  4-C ,  5-C ) :   1.0501
B(  4-C , 26-C ) :   1.0463 B(  4-C , 38-H ) :   0.9776 B(  5-C ,  6-C ) :   1.0032
B(  5-C , 39-H ) :   0.9551 B(  5-C , 40-H ) :   0.9552 B(  6-C ,  7-C ) :   0.9839
B(  6-C , 24-C ) :   0.9526 B(  6-C , 41-H ) :   0.9550 B(  7-C ,  8-C ) :   0.9887
B(  7-C , 19-C ) :   1.0003 B(  7-C , 42-H ) :   0.9451 B(  8-C ,  9-C ) :   1.0346
B(  8-C , 43-H ) :   0.9569 B(  8-C , 44-H ) :   0.9564 B(  9-C , 10-F ) :   0.8597
B(  9-C , 11-C ) :   0.9694 B(  9-C , 45-H ) :   0.9785 B( 11-C , 12-C ) :   1.8780
B( 11-C , 17-C ) :   0.9148 B( 12-C , 13-C ) :   1.0042 B( 12-C , 46-H ) :   1.0069
B( 13-C , 14-O ) :   1.9460 B( 13-C , 15-C ) :   1.0055 B( 15-C , 16-C ) :   1.8607
B( 15-C , 47-H ) :   1.0036 B( 16-C , 17-C ) :   0.9733 B( 16-C , 48-H ) :   0.9897
B( 17-C , 18-C ) :   0.9990 B( 17-C , 19-C ) :   0.9593 B( 18-C , 49-H ) :   0.9800
B( 18-C , 50-H ) :   0.9817 B( 18-C , 51-H ) :   0.9822 B( 19-C , 20-F ) :   0.7716
B( 19-C , 21-C ) :   0.9218 B( 21-C , 22-O ) :   0.9536 B( 21-C , 23-C ) :   1.0522
B( 21-C , 52-H ) :   0.9520 B( 22-O , 53-H ) :   0.9587 B( 23-C , 24-C ) :   0.9872
B( 23-C , 54-H ) :   0.9542 B( 23-C , 55-H ) :   0.9458 B( 24-C , 25-C ) :   0.9941
B( 24-C , 26-C ) :   0.8629 B( 25-C , 56-H ) :   0.9772 B( 25-C , 57-H ) :   0.9768
B( 25-C , 58-H ) :   0.9772 B( 26-C , 27-C ) :   0.9018 B( 26-C , 31-O ) :   0.8842
B( 27-C , 28-O ) :   2.0041 B( 27-C , 29-C ) :   0.9554 B( 29-C , 30-O ) :   0.9433
B( 29-C , 59-H ) :   0.9655 B( 29-C , 60-H ) :   0.9575 B( 30-O , 61-H ) :   0.9527

FINAL SINGLE POINT ENERGY     -1573.104655237151

DIPOLE MOMENT
-------------
                                X             Y             Z
Electronic contribution:     23.18369      -5.15077      13.20178
Nuclear contribution   :    -25.53737       4.83188     -15.51403
                        -----------------------------------------
Total Dipole Moment    :     -2.35367      -0.31889      -2.31225
                        -----------------------------------------
Magnitude (a.u.)       :      3.31481
Magnitude (Debye)      :      8.42558

Rotational constants in cm-1:     0.009402     0.002853     0.002709
Rotational constants in MHz :   281.868831    85.537274    81.213820

                             ****ORCA TERMINATED NORMALLY****
TOTAL RUN TIME: 0 days 0 hours 1 minutes 26 seconds 950 msec
