                         Program Version 5.0.3 -  RELEASE  -
|  1> !RHF def2-SVP TightSCF PAL16
|  2> *xyz 0 1
|  3> O 1.0442898709654793 -2.3327276321854633 -0.29028190711375507
|  4> C 1.2675689513032873 -1.1764634945443238 0.031082873372980473
|  5> O 0.33017508024965614 -0.2542056747429908 0.36325147083259113
|  6> C -1.030768759380365 -0.7209011600396769 0.321922229836417
|  7> C -1.5404820879602894 -0.8632931498665387 -1.1353567055714207
|  8> N -2.734572219996826 -0.016795649504943826 -1.3994670762266659
|  9> C -3.8035726702711967 -0.3890530182227633 -0.4474800979153061
| 10> C -3.3619073896624245 -0.2040194308078219 1.0139392339857978
| 11> C -1.916298917052336 0.3135693855945006 1.048285533773454
| 12> C -1.8816049221442361 1.6387050834311891 0.26568114291178707
| 13> C -2.3614117366093987 1.3964240570016775 -1.1739849401853428
| 14> C 2.6319990195470266 -0.5876957810822457 0.10398214714129254
| 15> C 3.723754106787677 -1.4079292943414088 -0.21246044651733847
| 16> C 5.0239030474773845 -0.9015668247118249 -0.15982408199902715
| 17> C 5.240523652069696 0.42544830610345136 0.2086678908372227
| 18> C 4.160002621254999 1.24845401291355 0.5249045616139278
| 19> C 2.8574853184916784 0.745704664750005 0.47349113223775474
| 20> H -1.1040839875371222 -1.6804072797911043 0.8514415045252537
| 21> H -0.7553732292717937 -0.6154560386162781 -1.8603683583324158
| 22> H -1.803568124333566 -1.911329444137787 -1.3268446771951186
| 23> H -4.1041093449692925 -1.430425414386228 -0.6178951541087871
| 24> H -4.700486384761375 0.2110873257213246 -0.6455553997604866
| 25> H -3.435141064348908 -1.1568426884166565 1.551397639750182
| 26> H -4.028097885896008 0.5060411001935633 1.518239977472
| 27> H -1.5715900076323088 0.47547193537741556 2.075122957426703
| 28> H -0.868417517233391 2.0568049030428948 0.2589053990560928
| 29> H -2.5296644055548656 2.3765489125387314 0.7539861236689834
| 30> H -1.578185474183167 1.6904882042412808 -1.88393590616639
| 31> H -3.2177096998087524 2.0451695562403813 -1.3969164166530856
| 32> H 3.5653508438150143 -2.445273829330345 -0.5019287479492691
| 33> H 5.866487909866466 -1.542902161153772 -0.4068102867899561
| 34> H 6.253452352385443 0.819064625467697 0.24906890435681167
| 35> H 4.331746594382045 2.283211362595234 0.8116161260640596
| 36> H 2.030306460010406 1.4050945306691114 0.7236820418831287
| 37> *
| 38>
| 39>                          ****END OF INPUT****

CARTESIAN COORDINATES (ANGSTROEM)
---------------------------------
  O      1.044290   -2.332728   -0.290282
  C      1.267569   -1.176463    0.031083
  O      0.330175   -0.254206    0.363251
  C     -1.030769   -0.720901    0.321922
  C     -1.540482   -0.863293   -1.135357
  N     -2.734572   -0.016796   -1.399467
  C     -3.803573   -0.389053   -0.447480
  C     -3.361907   -0.204019    1.013939
  C     -1.916299    0.313569    1.048286
  C     -1.881605    1.638705    0.265681
  C     -2.361412    1.396424   -1.173985
  C      2.631999   -0.587696    0.103982
  C      3.723754   -1.407929   -0.212460
  C      5.023903   -0.901567   -0.159824
  C      5.240524    0.425448    0.208668
  C      4.160003    1.248454    0.524905
  C      2.857485    0.745705    0.473491
  H     -1.104084   -1.680407    0.851442
  H     -0.755373   -0.615456   -1.860368
  H     -1.803568   -1.911329   -1.326845
  H     -4.104109   -1.430425   -0.617895
  H     -4.700486    0.211087   -0.645555
  H     -3.435141   -1.156843    1.551398
  H     -4.028098    0.506041    1.518240
  H     -1.571590    0.475472    2.075123
  H     -0.868418    2.056805    0.258905
  H     -2.529664    2.376549    0.753986
  H     -1.578185    1.690488   -1.883936
  H     -3.217710    2.045170   -1.396916
  H      3.565351   -2.445274   -0.501929
  H      5.866488   -1.542902   -0.406810
  H      6.253452    0.819065    0.249069
  H      4.331747    2.283211    0.811616
  H      2.030306    1.405095    0.723682

 Total Charge           Charge          ....    0
 Multiplicity           Mult            ....    1
 Number of Electrons    NEL             ....  124
 Basis Dimension        Dim             ....  323

ORBITAL ENERGIES
----------------

  NO   OCC          E(Eh)            E(eV)
   0   2.0000     -20.599942      -560.5529
   1   2.0000     -20.542750      -558.9967
   2   2.0000     -15.545963      -423.0272
   3   2.0000     -11.391957      -309.9909
   4   2.0000     -11.293337      -307.3073
   5   2.0000     -11.257323      -306.3273
   6   2.0000     -11.256098      -306.2940
   7   2.0000     -11.254935      -306.2623
   8   2.0000     -11.253658      -306.2276
   9   2.0000     -11.253359      -306.2195
  10   2.0000     -11.252305      -306.1908
  11   2.0000     -11.249561      -306.1161
  12   2.0000     -11.248253      -306.0805
  13   2.0000     -11.247262      -306.0536
  14   2.0000     -11.237859      -305.7977
  15   2.0000     -11.228100      -305.5321
  16   2.0000     -11.222547      -305.3810
  17   2.0000      -1.443432       -39.2778
  18   2.0000      -1.343152       -36.5490
  19   2.0000      -1.229381       -33.4531
  20   2.0000      -1.156409       -31.4675
  21   2.0000      -1.073145       -29.2018
  22   2.0000      -1.039932       -28.2980
  23   2.0000      -1.016152       -27.6509
  24   2.0000      -1.008500       -27.4427
  25   2.0000      -1.002791       -27.2873
  26   2.0000      -0.894377       -24.3372
  27   2.0000      -0.847064       -23.0498
  28   2.0000      -0.840002       -22.8576
  29   2.0000      -0.837065       -22.7777
  30   2.0000      -0.824279       -22.4298
  31   2.0000      -0.773558       -21.0496
  32   2.0000      -0.738575       -20.0977
  33   2.0000      -0.702871       -19.1261
  34   2.0000      -0.694691       -18.9035
  35   2.0000      -0.688546       -18.7363
  36   2.0000      -0.678505       -18.4630
  37   2.0000      -0.655764       -17.8442
  38   2.0000      -0.639770       -17.4090
  39   2.0000      -0.631176       -17.1752
  40   2.0000      -0.625956       -17.0331
  41   2.0000      -0.620490       -16.8844
  42   2.0000      -0.600573       -16.3424
  43   2.0000      -0.571940       -15.5633
  44   2.0000      -0.563492       -15.3334
  45   2.0000      -0.549925       -14.9642
  46   2.0000      -0.548499       -14.9254
  47   2.0000      -0.533109       -14.5066
  48   2.0000      -0.525385       -14.2964
  49   2.0000      -0.523336       -14.2407
  50   2.0000      -0.520336       -14.1590
  51   2.0000      -0.509361       -13.8604
  52   2.0000      -0.506845       -13.7920
  53   2.0000      -0.504985       -13.7413
  54   2.0000      -0.483467       -13.1558
  55   2.0000      -0.466929       -12.7058
  56   2.0000      -0.456321       -12.4171
  57   2.0000      -0.441283       -12.0079
  58   2.0000      -0.435863       -11.8604
  59   2.0000      -0.355254        -9.6669
  60   2.0000      -0.349352        -9.5064
  61   2.0000      -0.347337        -9.4515
  62   0.0000       0.081915         2.2290
  63   0.0000       0.123539         3.3617
  64   0.0000       0.159873         4.3504
  65   0.0000       0.180288         4.9059
  66   0.0000       0.196561         5.3487

MULLIKEN ATOMIC CHARGES
-----------------------
   0 O :   -0.419770
   1 C :    0.651576
   2 O :   -0.563504
   3 C :    0.216123
   4 C :    0.211457
   5 N :   -0.607060
   6 C :    0.156014
   7 C :   -0.009737
   8 C :   -0.225787
   9 C :   -0.001581
  10 C :    0.157901
  11 C :   -0.284483
  12 C :    0.034788
  13 C :   -0.052367
  14 C :   -0.007469
  15 C :   -0.051800
  16 C :    0.041890
  17 H :    0.055202
  18 H :    0.043958
  19 H :    0.049623
  20 H :    0.035540
  21 H :    0.033867
  22 H :    0.034970
  23 H :    0.037818
  24 H :    0.047384
  25 H :    0.045013
  26 H :    0.031164
  27 H :    0.033763
  28 H :    0.031092
  29 H :    0.069315
  30 H :    0.047683
  31 H :    0.049532
  32 H :    0.045543
  33 H :    0.062344
Sum of atomic charges:    0.0000000

LOEWDIN ATOMIC CHARGES
----------------------
   0 O :   -0.276891
   1 C :    0.229147
   2 O :   -0.181958
   3 C :    0.107210
   4 C :    0.060384
   5 N :   -0.196615
   6 C :    0.059292
   7 C :   -0.029820
   8 C :   -0.028927
   9 C :   -0.031409
  10 C :    0.059505
  11 C :   -0.100111
  12 C :    0.030119
  13 C :   -0.035262
  14 C :    0.004081
  15 C :   -0.036863
  16 C :    0.018874
  17 H :    0.015486
  18 H :    0.020720
  19 H :    0.021842
  20 H :    0.013235
  21 H :    0.012692
  22 H :    0.013342
  23 H :    0.016534
  24 H :    0.018815
  25 H :    0.015000
  26 H :    0.012851
  27 H :    0.012865
  28 H :    0.011102
  29 H :    0.040890
  30 H :    0.029581
  31 H :    0.030340
  32 H :    0.028839
  33 H :    0.035109

  Mayer bond orders larger than 0.100000
B(  0-O ,  1-C ) :   1.9664 B(  1-C ,  2-O ) :   1.0926 B(  1-C , 11-C ) :   0.9839
B(  2-O ,  3-C ) :   0.7680 B(  3-C ,  4-C ) :   0.9874 B(  3-C ,  8-C ) :   0.9878
B(  3-C , 17-H ) :   0.9746 B(  4-C ,  5-N ) :   0.9567 B(  4-C , 18-H ) :   0.9689
B(  4-C , 19-H ) :   0.9749 B(  5-N ,  6-C ) :   0.9522 B(  5-N , 10-C ) :   0.9453
B(  6-C ,  7-C ) :   0.9910 B(  6-C , 20-H ) :   0.9804 B(  6-C , 21-H ) :   0.9802
B(  7-C ,  8-C ) :   1.0085 B(  7-C , 22-H ) :   0.9753 B(  7-C , 23-H ) :   0.9752
B(  8-C ,  9-C ) :   0.9977 B(  8-C , 24-H ) :   0.9675 B(  9-C , 10-C ) :   0.9967
B(  9-C , 25-H ) :   0.9745 B(  9-C , 26-H ) :   0.9770 B( 10-C , 27-H ) :   0.9797
B( 10-C , 28-H ) :   0.9805 B( 11-C , 12-C ) :   1.4106 B( 11-C , 16-C ) :   1.3902
B( 12-C , 13-C ) :   1.4270 B( 12-C , 29-H ) :   0.9970 B( 13-C , 14-C ) :   1.4037
B( 13-C , 30-H ) :   1.0012 B( 14-C , 15-C ) :   1.4065 B( 14-C , 31-H ) :   0.9984
B( 15-C , 16-C ) :   1.4251 B( 15-C , 32-H ) :   1.0004 B( 16-C , 33-H ) :   0.9988

FINAL SINGLE POINT ENERGY      -743.680597597789

DIPOLE MOMENT
-------------
                                X             Y             Z
Electronic contribution:     13.22897      -5.02343      -0.04126
Nuclear contribution   :    -12.98876       5.91926       0.68421
                        -----------------------------------------
Total Dipole Moment    :      0.24021       0.89584       0.64295
                        -----------------------------------------
Magnitude (a.u.)       :      1.12854
Magnitude (Debye)      :      2.86853

Rotational constants in cm-1:     0.042819     0.007900     0.007322
Rotational constants in MHz :  1283.671234   236.833260   219.497892

                             ****ORCA TERMINATED NORMALLY****
TOTAL RUN TIME: 0 days 0 hours 0 minutes 15 seconds 893 msec
