                         Program Version 5.0.3 -  RELEASE  -
|  1> !RHF def2-SVP TightSCF PAL16
|  2> *xyz 0 1
|  3> C 7.511961947826957 -1.8213385569153708 1.0398515162459825
|  4> O 6.399029098377993 -0.9400239581390475 1.1391041707517624
|  5> C 6.259634612511704 -0.13898879596749303 -0.033184006528243375
|  6> C 5.078080077647228 0.8066214043074796 0.13659302743883242
|  7> C 3.769333575894993 0.08550947424972566 0.3623223114007411
|  8> N 2.8323638021963666 0.877863700087523 -0.379246464079784
|  9> C 1.426904938416483 0.6971276496995221 -0.2952049553523621
| 10> C 0.8820809542829547 -0.294015410769064 0.5337833319704265
| 11> C -0.5031499501130339 -0.4777369122639928 0.6292625711595862
| 12> C -1.3809773352532622 0.3215110421921756 -0.09917510025607117
| 13> O -2.703963573087374 0.03706458303889449 0.0859846782642544
| 14> C -3.6437592182671206 0.7990487244679552 -0.6712498306424841
| 15> C -5.037021073814628 0.29408053864325956 -0.37003566433444357
| 16> C -6.069334275435666 1.1904125718265668 -0.058477523448815884
| 17> C -7.361185168771896 0.7257930854045215 0.1967651497463488
| 18> C -7.638088780054779 -0.6401897913815887 0.13728254292266645
| 19> C -6.6222583312993235 -1.5466241888392158 -0.18013806132161145
| 20> C -6.904929166856591 -2.950675813946952 -0.24393912374993823
| 21> N -7.137021828848308 -4.086768935828763 -0.29772051937305377
| 22> C -5.328469223691122 -1.0784950472735013 -0.43729128800424166
| 23> C -0.8573545436003661 1.3117654692446514 -0.9232293206267427
| 24> C 0.5314135701133574 1.4955706219465712 -1.0169557577000237
| 25> C 3.5238571914533976 1.7003350180905683 -1.258029092251326
| 26> O 3.0852114424601855 2.438381731142494 -2.125284221228537
| 27> O 4.875589363865352 1.5710568705564163 -1.0540532773342342
| 28> H 8.440807100503548 -1.2541929432396737 0.9263408531728753
| 29> H 7.381998455677996 -2.5075459418264057 0.1974683529805983
| 30> H 7.569836727938191 -2.4067229019953156 1.9613363435056617
| 31> H 6.1142372214328375 -0.7803021908544491 -0.9114726132214431
| 32> H 7.173489128497348 0.44356041730699886 -0.20137463553216023
| 33> H 5.273150996347952 1.5041685676331626 0.9608998606576123
| 34> H 3.523064569696364 0.044991497272491396 1.4280416858451435
| 35> H 3.773626310166862 -0.9270826260232413 -0.05747450801555581
| 36> H 1.510751619049381 -0.9555331649488635 1.1218706358170947
| 37> H -0.8974487923013253 -1.2554866388414634 1.27946855246434
| 38> H -3.565636923071802 1.857327868502862 -0.39369445786052015
| 39> H -3.463735746425101 0.6821129546855922 -1.7472895365932
| 40> H -5.874247283123222 2.260213084512822 -0.007522248017831296
| 41> H -8.152424648388736 1.4302921444088466 0.4431001787973663
| 42> H -8.64851587220929 -0.9907014988295496 0.339481272872777
| 43> H -4.535045557292471 -1.7836841712315086 -0.6852484411169949
| 44> H -1.490213773361144 1.9692951554360683 -1.5100659297614087
| 45> H 0.8783583609067017 2.292005314460611 -1.6692014739176944
| 46> *
| 47>
| 48>                          ****END OF INPUT****

CARTESIAN COORDINATES (ANGSTROEM)
---------------------------------
  C      7.511962   -1.821339    1.039852
  O      6.399029   -0.940024    1.139104
  C      6.259635   -0.138989   -0.033184
  C      5.078080    0.806621    0.136593
  C      3.769334    0.085509    0.362322
  N      2.832364    0.877864   -0.379246
  C      1.426905    0.697128   -0.295205
  C      0.882081   -0.294015    0.533783
  C     -0.503150   -0.477737    0.629263
  C     -1.380977    0.321511   -0.099175
  O     -2.703964    0.037065    0.085985
  C     -3.643759    0.799049   -0.671250
  C     -5.037021    0.294081   -0.370036
  C     -6.069334    1.190413   -0.058478
  C     -7.361185    0.725793    0.196765
  C     -7.638089   -0.640190    0.137283
  C     -6.622258   -1.546624   -0.180138
  C     -6.904929   -2.950676   -0.243939
  N     -7.137022   -4.086769   -0.297721
  C     -5.328469   -1.078495   -0.437291
  C     -0.857355    1.311765   -0.923229
  C      0.531414    1.495571   -1.016956
  C      3.523857    1.700335   -1.258029
  O      3.085211    2.438382   -2.125284
  O      4.875589    1.571057   -1.054053
  H      8.440807   -1.254193    0.926341
  H      7.381998   -2.507546    0.197468
  H      7.569837   -2.406723    1.961336
  H      6.114237   -0.780302   -0.911473
  H      7.173489    0.443560   -0.201375
  H      5.273151    1.504169    0.960900
  H      3.523065    0.044991    1.428042
  H      3.773626   -0.927083   -0.057475
  H      1.510752   -0.955533    1.121871
  H     -0.897449   -1.255487    1.279469
  H     -3.565637    1.857328   -0.393694
  H     -3.463736    0.682113   -1.747290
  H     -5.874247    2.260213   -0.007522
  H     -8.152425    1.430292    0.443100
  H     -8.648516   -0.990701    0.339481
  H     -4.535046   -1.783684   -0.685248
  H     -1.490214    1.969295   -1.510066
  H      0.878358    2.292005   -1.669201

 Total Charge           Charge          ....    0
 Multiplicity           Mult            ....    1
 Number of Electrons    NEL             ....  178
 Basis Dimension        Dim             ....  440

ORBITAL ENERGIES
----------------

  NO   OCC          E(Eh)            E(eV)
   0   2.0000     -20.609257      -560.8064
   1   2.0000     -20.591186      -560.3147
   2   2.0000     -20.572942      -559.8182
   3   2.0000     -20.531041      -558.6780
   4   2.0000     -15.620279      -425.0494
   5   2.0000     -15.576703      -423.8636
   6   2.0000     -11.423102      -310.8384
   7   2.0000     -11.318010      -307.9787
   8   2.0000     -11.317074      -307.9532
   9   2.0000     -11.309032      -307.7344
  10   2.0000     -11.304849      -307.6206
  11   2.0000     -11.299127      -307.4649
  12   2.0000     -11.297535      -307.4216
  13   2.0000     -11.293629      -307.3153
  14   2.0000     -11.292872      -307.2947
  15   2.0000     -11.284070      -307.0551
  16   2.0000     -11.275503      -306.8220
  17   2.0000     -11.275013      -306.8087
  18   2.0000     -11.272671      -306.7450
  19   2.0000     -11.271591      -306.7156
  20   2.0000     -11.266249      -306.5702
  21   2.0000     -11.257007      -306.3187
  22   2.0000     -11.249321      -306.1096
  23   2.0000     -11.247410      -306.0576
  24   2.0000     -11.245959      -306.0181
  25   2.0000      -1.466622       -39.9088
  26   2.0000      -1.407237       -38.2929
  27   2.0000      -1.375762       -37.4364
  28   2.0000      -1.348457       -36.6934
  29   2.0000      -1.275463       -34.7071
  30   2.0000      -1.211657       -32.9709
  31   2.0000      -1.175607       -31.9899
  32   2.0000      -1.147025       -31.2121
  33   2.0000      -1.075516       -29.2663
  34   2.0000      -1.066973       -29.0338
  35   2.0000      -1.046964       -28.4893
  36   2.0000      -1.020376       -27.7658
  37   2.0000      -1.017734       -27.6940
  38   2.0000      -0.965648       -26.2766
  39   2.0000      -0.945044       -25.7159
  40   2.0000      -0.910611       -24.7790
  41   2.0000      -0.884350       -24.0644
  42   2.0000      -0.871159       -23.7054
  43   2.0000      -0.856392       -23.3036
  44   2.0000      -0.841300       -22.8929
  45   2.0000      -0.819361       -22.2959
  46   2.0000      -0.788616       -21.4593
  47   2.0000      -0.752650       -20.4807
  48   2.0000      -0.747332       -20.3359
  49   2.0000      -0.733052       -19.9473
  50   2.0000      -0.721121       -19.6227
  51   2.0000      -0.697679       -18.9848
  52   2.0000      -0.690795       -18.7975
  53   2.0000      -0.687213       -18.7000
  54   2.0000      -0.684927       -18.6378
  55   2.0000      -0.668008       -18.1774
  56   2.0000      -0.656614       -17.8674
  57   2.0000      -0.650570       -17.7029
  58   2.0000      -0.646140       -17.5824
  59   2.0000      -0.633846       -17.2478
  60   2.0000      -0.627204       -17.0671
  61   2.0000      -0.624143       -16.9838
  62   2.0000      -0.615128       -16.7385
  63   2.0000      -0.610519       -16.6131
  64   2.0000      -0.604900       -16.4602
  65   2.0000      -0.592797       -16.1308
  66   2.0000      -0.581507       -15.8236
  67   2.0000      -0.565410       -15.3856
  68   2.0000      -0.563117       -15.3232
  69   2.0000      -0.560975       -15.2649
  70   2.0000      -0.555490       -15.1156
  71   2.0000      -0.552916       -15.0456
  72   2.0000      -0.543671       -14.7940
  73   2.0000      -0.531422       -14.4607
  74   2.0000      -0.527563       -14.3557
  75   2.0000      -0.522945       -14.2301
  76   2.0000      -0.504992       -13.7415
  77   2.0000      -0.502936       -13.6856
  78   2.0000      -0.495555       -13.4847
  79   2.0000      -0.478820       -13.0294
  80   2.0000      -0.468252       -12.7418
  81   2.0000      -0.463958       -12.6249
  82   2.0000      -0.453488       -12.3400
  83   2.0000      -0.449057       -12.2195
  84   2.0000      -0.428199       -11.6519
  85   2.0000      -0.361854        -9.8465
  86   2.0000      -0.359540        -9.7836
  87   2.0000      -0.352434        -9.5902
  88   2.0000      -0.304986        -8.2991
  89   0.0000       0.074553         2.0287
  90   0.0000       0.099419         2.7053
  91   0.0000       0.113884         3.0989
  92   0.0000       0.135026         3.6742
  93   0.0000       0.162298         4.4163

MULLIKEN ATOMIC CHARGES
-----------------------
   0 C :    0.237307
   1 O :   -0.616191
   2 C :    0.309552
   3 C :    0.142703
   4 C :    0.263155
   5 N :   -0.689029
   6 C :    0.254531
   7 C :   -0.093970
   8 C :   -0.053286
   9 C :    0.319882
  10 O :   -0.555738
  11 C :    0.384785
  12 C :   -0.192723
  13 C :   -0.005750
  14 C :   -0.040742
  15 C :    0.039442
  16 C :   -0.192088
  17 C :    0.045257
  18 N :   -0.104697
  19 C :    0.078180
  20 C :   -0.135939
  21 C :   -0.049506
  22 C :    0.739724
  23 O :   -0.423243
  24 O :   -0.531253
  25 H :    0.022731
  26 H :    0.021129
  27 H :    0.048110
  28 H :    0.022013
  29 H :    0.037846
  30 H :    0.059319
  31 H :    0.067473
  32 H :    0.049553
  33 H :    0.044527
  34 H :    0.051039
  35 H :    0.036139
  36 H :    0.054072
  37 H :    0.046199
  38 H :    0.055075
  39 H :    0.059257
  40 H :    0.063730
  41 H :    0.043351
  42 H :    0.088075
Sum of atomic charges:   -0.0000000

LOEWDIN ATOMIC CHARGES
----------------------
   0 C :    0.130754
   1 O :   -0.273474
   2 C :    0.129021
   3 C :    0.110181
   4 C :    0.078526
   5 N :   -0.120573
   6 C :    0.035549
   7 C :   -0.036700
   8 C :   -0.035369
   9 C :    0.078492
  10 O :   -0.193639
  11 C :    0.150513
  12 C :   -0.040757
  13 C :    0.001729
  14 C :   -0.020827
  15 C :    0.017235
  16 C :   -0.081161
  17 C :    0.010667
  18 N :   -0.103064
  19 C :    0.035364
  20 C :   -0.068427
  21 C :   -0.012716
  22 C :    0.255393
  23 O :   -0.290310
  24 O :   -0.183266
  25 H :    0.004530
  26 H :    0.003799
  27 H :    0.019366
  28 H :    0.005228
  29 H :    0.010508
  30 H :    0.021424
  31 H :    0.026987
  32 H :    0.015598
  33 H :    0.029155
  34 H :    0.036664
  35 H :    0.013731
  36 H :    0.018756
  37 H :    0.031088
  38 H :    0.034347
  39 H :    0.039903
  40 H :    0.042825
  41 H :    0.029651
  42 H :    0.043298

  Mayer bond orders larger than 0.100000
B(  0-C ,  1-O ) :   0.8802 B(  0-C , 25-H ) :   0.9863 B(  0-C , 26-H ) :   0.9862
B(  0-C , 27-H ) :   0.9937 B(  1-O ,  2-C ) :   0.9023 B(  2-C ,  3-C ) :   1.0476
B(  2-C , 28-H ) :   0.9593 B(  2-C , 29-H ) :   0.9746 B(  3-C ,  4-C ) :   1.0340
B(  3-C , 24-O ) :   0.8402 B(  3-C , 30-H ) :   0.9500 B(  4-C ,  5-N ) :   0.8619
B(  4-C , 31-H ) :   0.9688 B(  4-C , 32-H ) :   0.9769 B(  5-N ,  6-C ) :   0.8846
B(  5-N , 22-C ) :   1.0518 B(  6-C ,  7-C ) :   1.3724 B(  6-C , 21-C ) :   1.4310
B(  7-C ,  8-C ) :   1.4436 B(  7-C , 33-H ) :   1.0007 B(  8-C ,  9-C ) :   1.4044
B(  8-C , 34-H ) :   1.0028 B(  9-C , 10-O ) :   0.9768 B(  9-C , 20-C ) :   1.3488
B( 10-O , 11-C ) :   0.8775 B( 11-C , 12-C ) :   0.9973 B( 11-C , 35-H ) :   0.9771
B( 11-C , 36-H ) :   0.9633 B( 12-C , 13-C ) :   1.4437 B( 12-C , 19-C ) :   1.4128
B( 13-C , 14-C ) :   1.4117 B( 13-C , 37-H ) :   0.9969 B( 14-C , 15-C ) :   1.4398
B( 14-C , 38-H ) :   0.9977 B( 15-C , 16-C ) :   1.3818 B( 15-C , 39-H ) :   0.9995
B( 16-C , 17-C ) :   1.0234 B( 16-C , 19-C ) :   1.4071 B( 17-C , 18-N ) :   3.0309
B( 19-C , 40-H ) :   1.0008 B( 20-C , 21-C ) :   1.4004 B( 20-C , 41-H ) :   1.0078
B( 21-C , 42-H ) :   0.9917 B( 22-C , 23-O ) :   1.9698 B( 22-C , 24-O ) :   1.0115

FINAL SINGLE POINT ENERGY     -1137.459646386592

DIPOLE MOMENT
-------------
                                X             Y             Z
Electronic contribution:    -19.55299       1.51206      -3.91963
Nuclear contribution   :     20.61168      -0.83361       4.85409
                        -----------------------------------------
Total Dipole Moment    :      1.05869       0.67845       0.93446
                        -----------------------------------------
Magnitude (a.u.)       :      1.56663
Magnitude (Debye)      :      3.98206

Rotational constants in cm-1:     0.019149     0.002010     0.001866
Rotational constants in MHz :   574.082076    60.265429    55.944892

                             ****ORCA TERMINATED NORMALLY****
TOTAL RUN TIME: 0 days 0 hours 0 minutes 24 seconds 558 msec
