                         Program Version 5.0.3 -  RELEASE  -
|  1> !RHF def2-SVP TightSCF PAL16
|  2> *xyz 0 1
|  3> C 5.766730056069773 0.7584355804628302 0.7842038042718353
|  4> C 4.462367182632098 0.6436141479952989 0.05086170054919005
|  5> C 3.9799804262565277 1.7184528055107895 -0.7075999713650397
|  6> C 2.782091320294126 1.602749141687642 -1.4126151889537564
|  7> C 2.0649153312248996 0.41091218269020025 -1.3561975620661644
|  8> C 2.543066644545934 -0.6851883261419471 -0.6394767330243649
|  9> C 3.745092545704024 -0.5616633795841665 0.06804630026694183
| 10> C 1.7520484114717483 -1.9588541526411998 -0.6460650777002193
| 11> C 0.4151355313523516 -1.8176962053338506 0.042861453808612594
| 12> O 0.0700505645377523 -2.628589369426026 0.9050807597852604
| 13> C -0.5208905174593154 -0.7178769434552791 -0.34772928343458304
| 14> C -1.7636268905194377 -0.6707663411117556 0.3135802559060006
| 15> C -2.7305346708239226 0.30160238454760907 0.0009604817399595307
| 16> C -4.076346337233572 0.34639555356298257 0.7142403112492001
| 17> C -3.8998604055144392 0.4442600813141869 2.232287783771552
| 18> C -4.976262905399103 -0.8233844681238712 0.3395343336760119
| 19> O -4.767351817984116 -1.692350869978238 -0.4910572896358161
| 20> O -6.153650500327796 -0.8102699977347724 1.0014976031159262
| 21> C -2.4419944748988605 1.2283309715804647 -1.0076988243712846
| 22> C -1.2154856691585523 1.1910198455937107 -1.6720664532853575
| 23> C -0.24788119367359873 0.2366127805211251 -1.334921208460807
| 24> O 0.9054897052579276 0.30424879041185243 -2.083001252684632
| 25> H 5.76342184623982 0.13686066899376773 1.6857693966758895
| 26> H 6.589128496155957 0.4395216122998673 0.136566754424177
| 27> H 5.946439277718632 1.790662483098679 1.1026490441830583
| 28> H 4.536779974629409 2.6517411145638303 -0.7538571229511405
| 29> H 2.411888814031493 2.4373411855900637 -2.000429814771228
| 30> H 4.128279358651436 -1.407476798349654 0.6365595563726543
| 31> H 2.3144021041322604 -2.7474420105791504 -0.13060913768286375
| 32> H 1.5933333844494648 -2.3147885221372846 -1.6708896457840765
| 33> H -1.986298422006456 -1.4208236404425318 1.0726291906877619
| 34> H -4.605970106981794 1.2495856703827823 0.3817888116561363
| 35> H -3.5139573904500927 -0.4882705061025337 2.658838235732098
| 36> H -3.2100505934838193 1.2524248056603433 2.499687010322189
| 37> H -4.856815300810202 0.6494963767930955 2.724735119928981
| 38> H -6.62472936142666 -1.5956954486105073 0.6502173796794838
| 39> H -3.1699840426817616 1.9859187800101152 -1.2912887735854313
| 40> H -1.0089503745227395 1.9151169622542221 -2.4570919480462745
| 41> *
| 42>
| 43>                          ****END OF INPUT****

CARTESIAN COORDINATES (ANGSTROEM)
---------------------------------
  C      5.766730    0.758436    0.784204
  C      4.462367    0.643614    0.050862
  C      3.979980    1.718453   -0.707600
  C      2.782091    1.602749   -1.412615
  C      2.064915    0.410912   -1.356198
  C      2.543067   -0.685188   -0.639477
  C      3.745093   -0.561663    0.068046
  C      1.752048   -1.958854   -0.646065
  C      0.415136   -1.817696    0.042861
  O      0.070051   -2.628589    0.905081
  C     -0.520891   -0.717877   -0.347729
  C     -1.763627   -0.670766    0.313580
  C     -2.730535    0.301602    0.000960
  C     -4.076346    0.346396    0.714240
  C     -3.899860    0.444260    2.232288
  C     -4.976263   -0.823384    0.339534
  O     -4.767352   -1.692351   -0.491057
  O     -6.153651   -0.810270    1.001498
  C     -2.441994    1.228331   -1.007699
  C     -1.215486    1.191020   -1.672066
  C     -0.247881    0.236613   -1.334921
  O      0.905490    0.304249   -2.083001
  H      5.763422    0.136861    1.685769
  H      6.589128    0.439522    0.136567
  H      5.946439    1.790662    1.102649
  H      4.536780    2.651741   -0.753857
  H      2.411889    2.437341   -2.000430
  H      4.128279   -1.407477    0.636560
  H      2.314402   -2.747442   -0.130609
  H      1.593333   -2.314789   -1.670890
  H     -1.986298   -1.420824    1.072629
  H     -4.605970    1.249586    0.381789
  H     -3.513957   -0.488271    2.658838
  H     -3.210051    1.252425    2.499687
  H     -4.856815    0.649496    2.724735
  H     -6.624729   -1.595695    0.650217
  H     -3.169984    1.985919   -1.291289
  H     -1.008950    1.915117   -2.457092

 Total Charge           Charge          ....    0
 Multiplicity           Mult            ....    1
 Number of Electrons    NEL             ....  156
 Basis Dimension        Dim             ....  388

ORBITAL ENERGIES
----------------

  NO   OCC          E(Eh)            E(eV)
   0   2.0000     -20.609591      -560.8155
   1   2.0000     -20.598801      -560.5219
   2   2.0000     -20.546426      -559.0967
   3   2.0000     -20.540002      -558.9219
   4   2.0000     -11.393793      -310.0409
   5   2.0000     -11.342944      -308.6572
   6   2.0000     -11.324177      -308.1465
   7   2.0000     -11.303779      -307.5915
   8   2.0000     -11.271203      -306.7050
   9   2.0000     -11.261397      -306.4382
  10   2.0000     -11.259281      -306.3806
  11   2.0000     -11.256477      -306.3043
  12   2.0000     -11.255407      -306.2752
  13   2.0000     -11.255096      -306.2667
  14   2.0000     -11.251009      -306.1555
  15   2.0000     -11.250463      -306.1407
  16   2.0000     -11.248289      -306.0815
  17   2.0000     -11.247965      -306.0727
  18   2.0000     -11.247329      -306.0554
  19   2.0000     -11.245893      -306.0163
  20   2.0000     -11.242395      -305.9211
  21   2.0000     -11.236739      -305.7672
  22   2.0000      -1.451973       -39.5102
  23   2.0000      -1.429269       -38.8924
  24   2.0000      -1.361342       -37.0440
  25   2.0000      -1.335749       -36.3476
  26   2.0000      -1.167525       -31.7700
  27   2.0000      -1.156055       -31.4579
  28   2.0000      -1.092846       -29.7378
  29   2.0000      -1.076791       -29.3010
  30   2.0000      -1.039888       -28.2968
  31   2.0000      -1.031038       -28.0560
  32   2.0000      -0.996547       -27.1174
  33   2.0000      -0.967200       -26.3189
  34   2.0000      -0.927845       -25.2480
  35   2.0000      -0.904103       -24.6019
  36   2.0000      -0.873864       -23.7791
  37   2.0000      -0.847670       -23.0663
  38   2.0000      -0.839656       -22.8482
  39   2.0000      -0.798927       -21.7399
  40   2.0000      -0.791798       -21.5459
  41   2.0000      -0.764959       -20.8156
  42   2.0000      -0.720778       -19.6134
  43   2.0000      -0.709932       -19.3182
  44   2.0000      -0.703597       -19.1458
  45   2.0000      -0.688845       -18.7444
  46   2.0000      -0.680506       -18.5175
  47   2.0000      -0.668348       -18.1867
  48   2.0000      -0.659024       -17.9330
  49   2.0000      -0.638451       -17.3731
  50   2.0000      -0.634553       -17.2671
  51   2.0000      -0.625069       -17.0090
  52   2.0000      -0.618993       -16.8437
  53   2.0000      -0.613976       -16.7071
  54   2.0000      -0.610544       -16.6137
  55   2.0000      -0.601382       -16.3644
  56   2.0000      -0.596927       -16.2432
  57   2.0000      -0.587138       -15.9768
  58   2.0000      -0.580143       -15.7865
  59   2.0000      -0.567139       -15.4326
  60   2.0000      -0.561551       -15.2806
  61   2.0000      -0.554460       -15.0876
  62   2.0000      -0.537451       -14.6248
  63   2.0000      -0.528066       -14.3694
  64   2.0000      -0.521408       -14.1882
  65   2.0000      -0.514603       -14.0031
  66   2.0000      -0.505361       -13.7516
  67   2.0000      -0.504350       -13.7241
  68   2.0000      -0.491328       -13.3697
  69   2.0000      -0.490700       -13.3526
  70   2.0000      -0.478285       -13.0148
  71   2.0000      -0.471376       -12.8268
  72   2.0000      -0.451411       -12.2835
  73   2.0000      -0.427532       -11.6338
  74   2.0000      -0.354121        -9.6361
  75   2.0000      -0.345207        -9.3935
  76   2.0000      -0.335203        -9.1213
  77   2.0000      -0.326242        -8.8775
  78   0.0000       0.072070         1.9611
  79   0.0000       0.119744         3.2584
  80   0.0000       0.120681         3.2839
  81   0.0000       0.130116         3.5406
  82   0.0000       0.154228         4.1968

MULLIKEN ATOMIC CHARGES
-----------------------
   0 C :    0.072205
   1 C :   -0.189938
   2 C :   -0.014410
   3 C :   -0.041794
   4 C :    0.276058
   5 C :   -0.231673
   6 C :   -0.007005
   7 C :    0.172380
   8 C :    0.288149
   9 O :   -0.389739
  10 C :   -0.224719
  11 C :    0.086831
  12 C :   -0.109360
  13 C :   -0.173817
  14 C :    0.008280
  15 C :    0.508007
  16 O :   -0.397197
  17 O :   -0.358065
  18 C :    0.029395
  19 C :   -0.068414
  20 C :    0.310927
  21 O :   -0.547293
  22 H :    0.040008
  23 H :    0.057579
  24 H :    0.038531
  25 H :    0.034577
  26 H :    0.038924
  27 H :    0.030065
  28 H :    0.052941
  29 H :    0.091491
  30 H :    0.069316
  31 H :    0.076467
  32 H :    0.045506
  33 H :    0.054339
  34 H :    0.059383
  35 H :    0.227619
  36 H :    0.039940
  37 H :    0.044506
Sum of atomic charges:   -0.0000000

LOEWDIN ATOMIC CHARGES
----------------------
   0 C :   -0.019910
   1 C :   -0.032722
   2 C :   -0.024272
   3 C :   -0.023946
   4 C :    0.062635
   5 C :   -0.048988
   6 C :   -0.018613
   7 C :   -0.018050
   8 C :    0.179812
   9 O :   -0.250818
  10 C :   -0.115184
  11 C :    0.060736
  12 C :   -0.042030
  13 C :   -0.043622
  14 C :   -0.015740
  15 C :    0.215199
  16 O :   -0.272855
  17 O :   -0.112642
  18 C :    0.015135
  19 C :   -0.046632
  20 C :    0.112282
  21 O :   -0.153925
  22 H :    0.024629
  23 H :    0.030168
  24 H :    0.024197
  25 H :    0.027084
  26 H :    0.033645
  27 H :    0.027959
  28 H :    0.039999
  29 H :    0.048372
  30 H :    0.040515
  31 H :    0.042203
  32 H :    0.022667
  33 H :    0.026603
  34 H :    0.025540
  35 H :    0.116008
  36 H :    0.029608
  37 H :    0.034954

  Mayer bond orders larger than 0.100000
B(  0-C ,  1-C ) :   0.9981 B(  0-C , 22-H ) :   0.9864 B(  0-C , 23-H ) :   0.9742
B(  0-C , 24-H ) :   0.9860 B(  1-C ,  2-C ) :   1.4212 B(  1-C ,  6-C ) :   1.4226
B(  2-C ,  3-C ) :   1.4033 B(  2-C , 25-H ) :   1.0002 B(  3-C ,  4-C ) :   1.4492
B(  3-C , 26-H ) :   1.0061 B(  4-C ,  5-C ) :   1.3866 B(  4-C , 21-O ) :   0.9011
B(  5-C ,  6-C ) :   1.4423 B(  5-C ,  7-C ) :   0.9644 B(  6-C , 27-H ) :   1.0019
B(  7-C ,  8-C ) :   1.0162 B(  7-C , 28-H ) :   0.9577 B(  7-C , 29-H ) :   0.9583
B(  8-C ,  9-O ) :   2.0281 B(  8-C , 10-C ) :   0.9258 B( 10-C , 11-C ) :   1.4219
B( 10-C , 20-C ) :   1.3419 B( 11-C , 12-C ) :   1.4128 B( 11-C , 30-H ) :   0.9942
B( 12-C , 13-C ) :   0.9725 B( 12-C , 18-C ) :   1.4139 B( 13-C , 14-C ) :   1.0269
B( 13-C , 15-C ) :   0.9268 B( 13-C , 31-H ) :   0.9534 B( 14-C , 32-H ) :   0.9798
B( 14-C , 33-H ) :   0.9866 B( 14-C , 34-H ) :   0.9811 B( 15-C , 16-O ) :   2.0183
B( 15-C , 17-O ) :   1.1283 B( 17-O , 35-H ) :   0.9404 B( 18-C , 19-C ) :   1.4214
B( 18-C , 36-H ) :   0.9955 B( 19-C , 20-C ) :   1.4456 B( 19-C , 37-H ) :   1.0029
B( 20-C , 21-O ) :   0.9347

FINAL SINGLE POINT ENERGY      -989.678467203990

DIPOLE MOMENT
-------------
                                X             Y             Z
Electronic contribution:     -8.01812      -5.39232      -7.77329
Nuclear contribution   :      8.32072       6.87149       7.98163
                        -----------------------------------------
Total Dipole Moment    :      0.30261       1.47917       0.20834
                        -----------------------------------------
Magnitude (a.u.)       :      1.52411
Magnitude (Debye)      :      3.87399

Rotational constants in cm-1:     0.023612     0.004517     0.004288
Rotational constants in MHz :   707.869050   135.411529   128.548205

                             ****ORCA TERMINATED NORMALLY****
TOTAL RUN TIME: 0 days 0 hours 0 minutes 22 seconds 710 msec
