                         Program Version 5.0.3 -  RELEASE  -
|  1> !RHF def2-SVP TightSCF PAL16
|  2> *xyz 0 1
|  3> C -4.3978823365505315 -1.6774428185552341 0.3422806137871678
|  4> C -4.078989170660508 -0.18290034469714625 0.25989840743994297
|  5> C -4.551777600943237 0.3925183642914676 -1.0629167628416165
|  6> O -4.732544939392723 -0.21271078247067804 -2.107172665263663
|  7> O -4.762579146117066 1.7246590046484316 -1.0056625534522372
|  8> C -2.602281083316205 0.09228650246500687 0.5024422542122058
|  9> C -2.2115899457576913 0.8642812444390711 1.615890991348242
| 10> C -0.8662858234448747 1.149171397163806 1.8881071085956593
| 11> C 0.05345335892635886 0.6240957129601079 0.9915625254596164
| 12> O 1.4103307026882397 0.7529958992347449 1.0270712899582373
| 13> C 1.8388613854939773 0.05462756606656598 -0.07545865730189667
| 14> C 3.2815476338064826 0.013590921452281307 -0.3065130124171758
| 15> C 4.191425627277816 0.6528893006548682 0.5507294559822037
| 16> C 5.567678623897679 0.5963240538969476 0.3040479303290389
| 17> C 6.045467787626197 -0.10078039233023339 -0.803100426287931
| 18> Cl 7.737164853512366 -0.16990321030312736 -1.1057382024462856
| 19> C 5.160199612861511 -0.7416488989192827 -1.6656235138255495
| 20> C 3.785097390115031 -0.6836401730129207 -1.4168961552580055
| 21> N 0.8697737415765738 -0.4936928352832975 -0.7880840146473166
| 22> C -0.27157814854209705 -0.13697764863926878 -0.11684345327968337
| 23> C -1.6202913457065158 -0.414503318968347 -0.3779974786549216
| 24> H -5.472760619276628 -1.8493939110445932 0.21640228074762197
| 25> H -3.884666104011895 -2.252334877693216 -0.43668581456976674
| 26> H -4.10014771087786 -2.0889131318329786 1.3130178716698953
| 27> H -4.678010886558661 0.30412614870302074 1.0415358116901796
| 28> H -5.023391526314229 1.9634273326407075 -1.9200376631100116
| 29> H -2.96755031368735 1.2611657406605667 2.2934494565149253
| 30> H -0.5600321302934838 1.7418095062913854 2.7407600891381283
| 31> H 3.838040833377398 1.202635547878433 1.4210523174261227
| 32> H 6.256801305585925 1.0974515167873864 0.9788395370361349
| 33> H 5.528258706980356 -1.2867714874638017 -2.5307777347082507
| 34> H 3.100817257710102 -1.1885800374311777 -2.098101197958667
| 35> H -1.8825599899760856 -1.007861891593941 -1.2487035976579752
| 36> *
| 37>
| 38>                          ****END OF INPUT****

CARTESIAN COORDINATES (ANGSTROEM)
---------------------------------
  C     -4.397882   -1.677443    0.342281
  C     -4.078989   -0.182900    0.259898
  C     -4.551778    0.392518   -1.062917
  O     -4.732545   -0.212711   -2.107173
  O     -4.762579    1.724659   -1.005663
  C     -2.602281    0.092287    0.502442
  C     -2.211590    0.864281    1.615891
  C     -0.866286    1.149171    1.888107
  C      0.053453    0.624096    0.991563
  O      1.410331    0.752996    1.027071
  C      1.838861    0.054628   -0.075459
  C      3.281548    0.013591   -0.306513
  C      4.191426    0.652889    0.550729
  C      5.567679    0.596324    0.304048
  C      6.045468   -0.100780   -0.803100
  Cl     7.737165   -0.169903   -1.105738
  C      5.160200   -0.741649   -1.665624
  C      3.785097   -0.683640   -1.416896
  N      0.869774   -0.493693   -0.788084
  C     -0.271578   -0.136978   -0.116843
  C     -1.620291   -0.414503   -0.377997
  H     -5.472761   -1.849394    0.216402
  H     -3.884666   -2.252335   -0.436686
  H     -4.100148   -2.088913    1.313018
  H     -4.678011    0.304126    1.041536
  H     -5.023392    1.963427   -1.920038
  H     -2.967550    1.261166    2.293449
  H     -0.560032    1.741810    2.740760
  H      3.838041    1.202636    1.421052
  H      6.256801    1.097452    0.978840
  H      5.528259   -1.286771   -2.530778
  H      3.100817   -1.188580   -2.098101
  H     -1.882560   -1.007862   -1.248704

 Total Charge           Charge          ....    0
 Multiplicity           Mult            ....    1
 Number of Electrons    NEL             ....  156
 Basis Dimension        Dim             ....  358

ORBITAL ENERGIES
----------------

  NO   OCC          E(Eh)            E(eV)
   0   2.0000    -104.806772     -2851.9372
   1   2.0000     -20.643208      -561.7302
   2   2.0000     -20.608189      -560.7773
   3   2.0000     -20.547161      -559.1167
   4   2.0000     -15.577056      -423.8733
   5   2.0000     -11.392880      -310.0160
   6   2.0000     -11.371031      -309.4215
   7   2.0000     -11.319468      -308.0184
   8   2.0000     -11.308230      -307.7126
   9   2.0000     -11.276876      -306.8594
  10   2.0000     -11.276711      -306.8549
  11   2.0000     -11.274523      -306.7954
  12   2.0000     -11.271917      -306.7245
  13   2.0000     -11.266473      -306.5763
  14   2.0000     -11.266282      -306.5711
  15   2.0000     -11.265207      -306.5419
  16   2.0000     -11.264966      -306.5353
  17   2.0000     -11.260394      -306.4109
  18   2.0000     -11.257024      -306.3192
  19   2.0000     -11.255479      -306.2772
  20   2.0000     -11.234229      -305.6989
  21   2.0000     -10.570636      -287.6416
  22   2.0000      -8.045756      -218.9362
  23   2.0000      -8.042088      -218.8363
  24   2.0000      -8.042072      -218.8359
  25   2.0000      -1.486903       -40.4607
  26   2.0000      -1.449999       -39.4565
  27   2.0000      -1.336692       -36.3732
  28   2.0000      -1.242966       -33.8228
  29   2.0000      -1.200859       -32.6770
  30   2.0000      -1.162157       -31.6239
  31   2.0000      -1.135382       -30.8953
  32   2.0000      -1.088420       -29.6174
  33   2.0000      -1.039608       -28.2892
  34   2.0000      -1.034508       -28.1504
  35   2.0000      -1.009697       -27.4753
  36   2.0000      -0.984453       -26.7883
  37   2.0000      -0.910637       -24.7797
  38   2.0000      -0.883697       -24.0466
  39   2.0000      -0.865336       -23.5470
  40   2.0000      -0.843022       -22.9398
  41   2.0000      -0.834988       -22.7212
  42   2.0000      -0.805619       -21.9220
  43   2.0000      -0.781507       -21.2659
  44   2.0000      -0.743876       -20.2419
  45   2.0000      -0.719317       -19.5736
  46   2.0000      -0.701653       -19.0929
  47   2.0000      -0.700360       -19.0578
  48   2.0000      -0.690366       -18.7858
  49   2.0000      -0.681880       -18.5549
  50   2.0000      -0.663547       -18.0560
  51   2.0000      -0.661031       -17.9876
  52   2.0000      -0.643244       -17.5036
  53   2.0000      -0.626256       -17.0413
  54   2.0000      -0.624179       -16.9848
  55   2.0000      -0.615898       -16.7594
  56   2.0000      -0.612476       -16.6663
  57   2.0000      -0.597865       -16.2687
  58   2.0000      -0.592085       -16.1115
  59   2.0000      -0.573653       -15.6099
  60   2.0000      -0.560641       -15.2558
  61   2.0000      -0.544893       -14.8273
  62   2.0000      -0.539742       -14.6871
  63   2.0000      -0.536648       -14.6029
  64   2.0000      -0.528648       -14.3852
  65   2.0000      -0.520739       -14.1700
  66   2.0000      -0.506839       -13.7918
  67   2.0000      -0.502991       -13.6871
  68   2.0000      -0.497491       -13.5374
  69   2.0000      -0.479556       -13.0494
  70   2.0000      -0.469978       -12.7888
  71   2.0000      -0.462543       -12.5864
  72   2.0000      -0.461345       -12.5538
  73   2.0000      -0.452444       -12.3116
  74   2.0000      -0.370811       -10.0903
  75   2.0000      -0.364555        -9.9201
  76   2.0000      -0.339610        -9.2413
  77   2.0000      -0.305756        -8.3201
  78   0.0000       0.051456         1.4002
  79   0.0000       0.106079         2.8865
  80   0.0000       0.120442         3.2774
  81   0.0000       0.133153         3.6233
  82   0.0000       0.169718         4.6183

MULLIKEN ATOMIC CHARGES
-----------------------
   0 C :    0.043824
   1 C :   -0.141432
   2 C :    0.503878
   3 O :   -0.412898
   4 O :   -0.355818
   5 C :   -0.142759
   6 C :   -0.005059
   7 C :   -0.079757
   8 C :    0.275437
   9 O :   -0.473576
  10 C :    0.492551
  11 C :   -0.240503
  12 C :    0.040987
  13 C :   -0.019856
  14 C :    0.052402
  15 Cl:   -0.121812
  16 C :   -0.020386
  17 C :    0.041749
  18 N :   -0.334053
  19 C :    0.086489
  20 C :   -0.019365
  21 H :    0.040385
  22 H :    0.053669
  23 H :    0.041060
  24 H :    0.065994
  25 H :    0.224984
  26 H :    0.043369
  27 H :    0.048689
  28 H :    0.067857
  29 H :    0.054560
  30 H :    0.055806
  31 H :    0.077006
  32 H :    0.056577
Sum of atomic charges:    0.0000000

LOEWDIN ATOMIC CHARGES
----------------------
   0 C :   -0.013664
   1 C :   -0.041623
   2 C :    0.217929
   3 O :   -0.281604
   4 O :   -0.108157
   5 C :   -0.031316
   6 C :   -0.019753
   7 C :   -0.035080
   8 C :    0.059477
   9 O :   -0.105246
  10 C :    0.173135
  11 C :   -0.078804
  12 C :    0.022128
  13 C :   -0.043701
  14 C :   -0.094321
  15 Cl:    0.106706
  16 C :   -0.042709
  17 C :    0.035615
  18 N :   -0.173713
  19 C :   -0.018257
  20 C :   -0.010739
  21 H :    0.021594
  22 H :    0.025407
  23 H :    0.022101
  24 H :    0.037015
  25 H :    0.114605
  26 H :    0.029277
  27 H :    0.037707
  28 H :    0.039869
  29 H :    0.036073
  30 H :    0.036734
  31 H :    0.045216
  32 H :    0.038097

  Mayer bond orders larger than 0.100000
B(  0-C ,  1-C ) :   1.0352 B(  0-C , 21-H ) :   0.9843 B(  0-C , 22-H ) :   0.9755
B(  0-C , 23-H ) :   0.9851 B(  1-C ,  2-C ) :   0.9141 B(  1-C ,  5-C ) :   0.9913
B(  1-C , 24-H ) :   0.9577 B(  2-C ,  3-O ) :   1.9868 B(  2-C ,  4-O ) :   1.1447
B(  4-O , 25-H ) :   0.9432 B(  5-C ,  6-C ) :   1.4075 B(  5-C , 20-C ) :   1.4150
B(  6-C ,  7-C ) :   1.4402 B(  6-C , 26-H ) :   0.9973 B(  7-C ,  8-C ) :   1.3791
B(  7-C , 27-H ) :   1.0143 B(  8-C ,  9-O ) :   0.9384 B(  8-C , 19-C ) :   1.3329
B(  9-O , 10-C ) :   1.0533 B( 10-C , 11-C ) :   1.0730 B( 10-C , 18-N ) :   1.7604
B( 11-C , 12-C ) :   1.3833 B( 11-C , 17-C ) :   1.3898 B( 12-C , 13-C ) :   1.4331
B( 12-C , 28-H ) :   0.9944 B( 13-C , 14-C ) :   1.3973 B( 13-C , 29-H ) :   1.0021
B( 14-C , 15-Cl) :   0.9658 B( 14-C , 16-C ) :   1.3880 B( 16-C , 17-C ) :   1.4390
B( 16-C , 30-H ) :   1.0034 B( 17-C , 31-H ) :   0.9944 B( 18-N , 19-C ) :   1.1979
B( 19-C , 20-C ) :   1.3605 B( 20-C , 32-H ) :   1.0098

FINAL SINGLE POINT ENERGY     -1350.630193850300

DIPOLE MOMENT
-------------
                                X             Y             Z
Electronic contribution:     28.26176       3.14894      -4.55435
Nuclear contribution   :    -28.29714      -2.61298       5.56306
                        -----------------------------------------
Total Dipole Moment    :     -0.03538       0.53596       1.00871
                        -----------------------------------------
Magnitude (a.u.)       :      1.14281
Magnitude (Debye)      :      2.90478

Rotational constants in cm-1:     0.032798     0.003023     0.002896
Rotational constants in MHz :   983.273430    90.635324    86.811166

                             ****ORCA TERMINATED NORMALLY****
TOTAL RUN TIME: 0 days 0 hours 0 minutes 16 seconds 715 msec
