                         Program Version 5.0.3 -  RELEASE  -
|  1> !RHF def2-SVP TightSCF PAL16
|  2> *xyz 0 1
|  3> C -1.4709010551448187 -1.4616678747322114 -2.8313935709384945
|  4> C -1.7221119001445593 -0.5183655757695186 -1.6359611876985682
|  5> C -2.6353791851011112 -1.2862728578270366 -0.602056689641096
|  6> O -1.9807065946228064 -2.4380463349118955 -0.06542791003927206
|  7> C -3.279489797615303 -0.421483421319502 0.47447420094379184
|  8> C -2.9873638820338178 -0.5758929494386087 1.839666139422763
|  9> C -3.604509522745876 0.22792627859518677 2.801038915186562
| 10> C -4.528542990141328 1.1948128871541939 2.414652947835641
| 11> C -4.837330939918106 1.3584457334875466 1.0672064550769707
| 12> C -4.220021467902572 0.5558009457516053 0.10535114460092515
| 13> N -0.3777653967507506 0.02107261998345058 -1.2707125092640725
| 14> C -0.1507504030785027 1.299695833614815 -1.9636936879917344
| 15> C -0.11545086343710675 0.16092598742833186 0.1625922299949222
| 16> C 1.3337990544620786 0.34723237221501335 0.55109389941731
| 17> C 2.4064620690795597 0.006457850848792785 -0.1840628959829051
| 18> C 3.800069423521243 0.20680466223407404 0.23428827895088994
| 19> C 4.2208173915390645 0.02079023098935366 1.5574626382775059
| 20> C 5.562455963150629 0.19406563035165308 1.9084753273621278
| 21> C 6.498626750809503 0.5449351468891489 0.9380239806498254
| 22> C 6.095608570408784 0.7167710351104459 -0.38442135388614324
| 23> C 4.7542624977928964 0.5427149242453416 -0.7349140945456513
| 24> H -0.9681421273025684 -0.9465040159741281 -3.65707648660332
| 25> H -0.8506208757295255 -2.317611756432753 -2.5422380705840437
| 26> H -2.4162641532202103 -1.848268942574698 -3.227927916717304
| 27> H -2.338494271731999 0.3108513006993282 -2.0101370818508664
| 28> H -3.480230702502936 -1.6982993134364675 -1.1726483196903872
| 29> H -2.628131710472939 -2.887598591848979 0.5027032361432646
| 30> H -2.2610011621275006 -1.315151342127003 2.1714823925488895
| 31> H -3.3603313797399337 0.0995041709426963 3.852577301654758
| 32> H -5.0077346158073 1.8200304560474367 3.163410918268405
| 33> H -5.560802003488417 2.110970082757843 0.7638661256758722
| 34> H -4.485037543090871 0.6988256929249896 -0.9402901446957077
| 35> H -0.8403104641889456 2.0774559658450964 -1.6145248906571126
| 36> H -0.28278205196658446 1.18868158300194 -3.045542692076722
| 37> H 0.8704895227997996 1.6676024904624336 -1.8250289018344514
| 38> H -0.4068376064541315 -0.7445863321835501 0.6986442165164044
| 39> H -0.6958465863176568 0.9951471041397107 0.5754764678755578
| 40> H 1.4749056272267667 0.7908134184968648 1.533597484820118
| 41> H 2.2655237414102847 -0.4405199944229825 -1.1662290825199328
| 42> H 3.5111025426068894 -0.2738397076752737 2.32609227222817
| 43> H 5.875534803529757 0.048076470432350964 2.938792507397568
| 44> H 7.542017306287356 0.677959887031171 1.2109331832958088
| 45> H 6.823982206319 0.9839605276326732 -1.1452829575900998
| 46> H 4.457233781835536 0.6789331442173164 -1.7723318193334532
| 47> *
| 48>
| 49>                          ****END OF INPUT****

CARTESIAN COORDINATES (ANGSTROEM)
---------------------------------
  C     -1.470901   -1.461668   -2.831394
  C     -1.722112   -0.518366   -1.635961
  C     -2.635379   -1.286273   -0.602057
  O     -1.980707   -2.438046   -0.065428
  C     -3.279490   -0.421483    0.474474
  C     -2.987364   -0.575893    1.839666
  C     -3.604510    0.227926    2.801039
  C     -4.528543    1.194813    2.414653
  C     -4.837331    1.358446    1.067206
  C     -4.220021    0.555801    0.105351
  N     -0.377765    0.021073   -1.270713
  C     -0.150750    1.299696   -1.963694
  C     -0.115451    0.160926    0.162592
  C      1.333799    0.347232    0.551094
  C      2.406462    0.006458   -0.184063
  C      3.800069    0.206805    0.234288
  C      4.220817    0.020790    1.557463
  C      5.562456    0.194066    1.908475
  C      6.498627    0.544935    0.938024
  C      6.095609    0.716771   -0.384421
  C      4.754262    0.542715   -0.734914
  H     -0.968142   -0.946504   -3.657076
  H     -0.850621   -2.317612   -2.542238
  H     -2.416264   -1.848269   -3.227928
  H     -2.338494    0.310851   -2.010137
  H     -3.480231   -1.698299   -1.172648
  H     -2.628132   -2.887599    0.502703
  H     -2.261001   -1.315151    2.171482
  H     -3.360331    0.099504    3.852577
  H     -5.007735    1.820030    3.163411
  H     -5.560802    2.110970    0.763866
  H     -4.485038    0.698826   -0.940290
  H     -0.840310    2.077456   -1.614525
  H     -0.282782    1.188682   -3.045543
  H      0.870490    1.667602   -1.825029
  H     -0.406838   -0.744586    0.698644
  H     -0.695847    0.995147    0.575476
  H      1.474906    0.790813    1.533597
  H      2.265524   -0.440520   -1.166229
  H      3.511103   -0.273840    2.326092
  H      5.875535    0.048076    2.938793
  H      7.542017    0.677960    1.210933
  H      6.823982    0.983961   -1.145283
  H      4.457234    0.678933   -1.772332

 Total Charge           Charge          ....    0
 Multiplicity           Mult            ....    1
 Number of Electrons    NEL             ....  152
 Basis Dimension        Dim             ....  409

ORBITAL ENERGIES
----------------

  NO   OCC          E(Eh)            E(eV)
   0   2.0000     -20.558830      -559.4342
   1   2.0000     -15.543606      -422.9630
   2   2.0000     -11.301385      -307.5263
   3   2.0000     -11.266971      -306.5899
   4   2.0000     -11.252129      -306.1860
   5   2.0000     -11.247292      -306.0544
   6   2.0000     -11.246291      -306.0271
   7   2.0000     -11.246109      -306.0222
   8   2.0000     -11.245902      -306.0166
   9   2.0000     -11.244670      -305.9830
  10   2.0000     -11.244519      -305.9789
  11   2.0000     -11.242638      -305.9277
  12   2.0000     -11.235810      -305.7419
  13   2.0000     -11.232143      -305.6421
  14   2.0000     -11.231948      -305.6368
  15   2.0000     -11.228979      -305.5561
  16   2.0000     -11.228853      -305.5526
  17   2.0000     -11.228535      -305.5440
  18   2.0000     -11.227436      -305.5141
  19   2.0000     -11.221249      -305.3457
  20   2.0000     -11.210831      -305.0622
  21   2.0000      -1.349728       -36.7280
  22   2.0000      -1.206052       -32.8183
  23   2.0000      -1.149427       -31.2775
  24   2.0000      -1.138634       -30.9838
  25   2.0000      -1.060877       -28.8679
  26   2.0000      -1.042045       -28.3555
  27   2.0000      -1.011759       -27.5313
  28   2.0000      -1.008386       -27.4396
  29   2.0000      -0.995852       -27.0985
  30   2.0000      -0.981989       -26.7213
  31   2.0000      -0.925408       -25.1816
  32   2.0000      -0.906513       -24.6675
  33   2.0000      -0.865650       -23.5555
  34   2.0000      -0.828017       -22.5315
  35   2.0000      -0.818784       -22.2802
  36   2.0000      -0.810216       -22.0471
  37   2.0000      -0.800097       -21.7718
  38   2.0000      -0.770713       -20.9722
  39   2.0000      -0.727364       -19.7926
  40   2.0000      -0.722680       -19.6651
  41   2.0000      -0.695074       -18.9139
  42   2.0000      -0.690097       -18.7785
  43   2.0000      -0.654920       -17.8213
  44   2.0000      -0.642032       -17.4706
  45   2.0000      -0.636626       -17.3235
  46   2.0000      -0.633727       -17.2446
  47   2.0000      -0.628043       -17.0899
  48   2.0000      -0.615073       -16.7370
  49   2.0000      -0.610497       -16.6125
  50   2.0000      -0.604608       -16.4522
  51   2.0000      -0.593980       -16.1630
  52   2.0000      -0.585292       -15.9266
  53   2.0000      -0.579874       -15.7792
  54   2.0000      -0.569925       -15.5085
  55   2.0000      -0.557402       -15.1677
  56   2.0000      -0.545898       -14.8547
  57   2.0000      -0.533465       -14.5163
  58   2.0000      -0.528738       -14.3877
  59   2.0000      -0.521807       -14.1991
  60   2.0000      -0.513206       -13.9650
  61   2.0000      -0.510857       -13.9011
  62   2.0000      -0.502383       -13.6705
  63   2.0000      -0.497708       -13.5433
  64   2.0000      -0.494446       -13.4545
  65   2.0000      -0.489993       -13.3334
  66   2.0000      -0.485930       -13.2228
  67   2.0000      -0.469209       -12.7678
  68   2.0000      -0.465638       -12.6706
  69   2.0000      -0.444994       -12.1089
  70   2.0000      -0.381666       -10.3857
  71   2.0000      -0.353516        -9.6197
  72   2.0000      -0.345412        -9.3991
  73   2.0000      -0.331991        -9.0339
  74   2.0000      -0.330429        -8.9914
  75   2.0000      -0.295841        -8.0502
  76   0.0000       0.116146         3.1605
  77   0.0000       0.119869         3.2618
  78   0.0000       0.124103         3.3770
  79   0.0000       0.137110         3.7309
  80   0.0000       0.166849         4.5402

MULLIKEN ATOMIC CHARGES
-----------------------
   0 C :    0.050644
   1 C :    0.096192
   2 C :    0.307845
   3 O :   -0.447802
   4 C :   -0.170370
   5 C :   -0.049112
   6 C :   -0.027010
   7 C :   -0.040818
   8 C :   -0.028160
   9 C :   -0.034004
  10 N :   -0.656693
  11 C :    0.150837
  12 C :    0.255752
  13 C :   -0.159862
  14 C :    0.004054
  15 C :   -0.053963
  16 C :   -0.034220
  17 C :   -0.031779
  18 C :   -0.046196
  19 C :   -0.031320
  20 C :   -0.035007
  21 H :    0.021910
  22 H :    0.050952
  23 H :    0.002936
  24 H :    0.020416
  25 H :    0.034679
  26 H :    0.201258
  27 H :    0.042235
  28 H :    0.041599
  29 H :    0.042552
  30 H :    0.042295
  31 H :    0.036693
  32 H :    0.008349
  33 H :    0.026734
  34 H :    0.047598
  35 H :    0.075210
  36 H :    0.019746
  37 H :    0.038460
  38 H :    0.056089
  39 H :    0.031427
  40 H :    0.036677
  41 H :    0.036898
  42 H :    0.037335
  43 H :    0.028945
Sum of atomic charges:    0.0000000

LOEWDIN ATOMIC CHARGES
----------------------
   0 C :   -0.028101
   1 C :    0.062061
   2 C :    0.112052
   3 O :   -0.182429
   4 C :   -0.046090
   5 C :   -0.031376
   6 C :   -0.019963
   7 C :   -0.030584
   8 C :   -0.018906
   9 C :   -0.027710
  10 N :   -0.191839
  11 C :    0.057662
  12 C :    0.059202
  13 C :   -0.021435
  14 C :   -0.031478
  15 C :   -0.024943
  16 C :   -0.023141
  17 C :   -0.022235
  18 C :   -0.036571
  19 C :   -0.022296
  20 C :   -0.025843
  21 H :    0.012453
  22 H :    0.024791
  23 H :    0.004848
  24 H :    0.005304
  25 H :    0.016524
  26 H :    0.085331
  27 H :    0.024504
  28 H :    0.027833
  29 H :    0.026834
  30 H :    0.028005
  31 H :    0.023282
  32 H :   -0.006746
  33 H :    0.009387
  34 H :    0.015531
  35 H :    0.026223
  36 H :   -0.000832
  37 H :    0.019778
  38 H :    0.028295
  39 H :    0.023925
  40 H :    0.025189
  41 H :    0.024167
  42 H :    0.025279
  43 H :    0.024062

  Mayer bond orders larger than 0.100000
B(  0-C ,  1-C ) :   1.0374 B(  0-C , 21-H ) :   0.9830 B(  0-C , 22-H ) :   0.9787
B(  0-C , 23-H ) :   0.9797 B(  1-C ,  2-C ) :   1.0076 B(  1-C , 10-N ) :   0.8943
B(  1-C , 24-H ) :   0.9594 B(  2-C ,  3-O ) :   0.9204 B(  2-C ,  4-C ) :   0.9657
B(  2-C , 25-H ) :   0.9724 B(  3-O , 26-H ) :   0.9628 B(  4-C ,  5-C ) :   1.4286
B(  4-C ,  9-C ) :   1.4024 B(  5-C ,  6-C ) :   1.4168 B(  5-C , 27-H ) :   0.9993
B(  6-C ,  7-C ) :   1.4176 B(  6-C , 28-H ) :   1.0007 B(  7-C ,  8-C ) :   1.4068
B(  7-C , 29-H ) :   1.0000 B(  8-C ,  9-C ) :   1.4382 B(  8-C , 30-H ) :   0.9997
B(  9-C , 31-H ) :   1.0004 B( 10-N , 11-C ) :   0.9313 B( 10-N , 12-C ) :   0.9424
B( 11-C , 32-H ) :   0.9793 B( 11-C , 33-H ) :   0.9882 B( 11-C , 34-H ) :   0.9895
B( 12-C , 13-C ) :   1.0258 B( 12-C , 35-H ) :   0.9493 B( 12-C , 36-H ) :   0.9679
B( 13-C , 14-C ) :   1.9282 B( 13-C , 37-H ) :   0.9781 B( 14-C , 15-C ) :   1.0000
B( 14-C , 38-H ) :   0.9776 B( 15-C , 16-C ) :   1.4092 B( 15-C , 20-C ) :   1.3988
B( 16-C , 17-C ) :   1.4269 B( 16-C , 39-H ) :   1.0014 B( 17-C , 18-C ) :   1.4094
B( 17-C , 40-H ) :   0.9994 B( 18-C , 19-C ) :   1.4112 B( 18-C , 41-H ) :   1.0007
B( 19-C , 20-C ) :   1.4269 B( 19-C , 42-H ) :   1.0001 B( 20-C , 43-H ) :   1.0049

FINAL SINGLE POINT ENERGY      -861.512105622251

DIPOLE MOMENT
-------------
                                X             Y             Z
Electronic contribution:      3.15082      -1.16824       7.85230
Nuclear contribution   :     -4.29063       1.50789      -7.60447
                        -----------------------------------------
Total Dipole Moment    :     -1.13980       0.33965       0.24783
                        -----------------------------------------
Magnitude (a.u.)       :      1.21488
Magnitude (Debye)      :      3.08798

Rotational constants in cm-1:     0.019062     0.004246     0.003848
Rotational constants in MHz :   571.458034   127.281908   115.348592

                             ****ORCA TERMINATED NORMALLY****
TOTAL RUN TIME: 0 days 0 hours 0 minutes 23 seconds 53 msec
