                         Program Version 5.0.3 -  RELEASE  -
|  1> !RHF def2-SVP TightSCF PAL16
|  2> *xyz 0 1
|  3> O 3.5242975888917525 -0.5602487076832157 1.4215227967274302
|  4> C 3.5465827143213193 0.5571248582111418 0.5345835101949433
|  5> C 2.39231963234575 0.49442247405027745 -0.4697425374860755
|  6> O 2.6948858349791887 -0.4860689542785492 -1.4767563743619634
|  7> C 1.0564715878929942 0.14624144442861212 0.19676454762124324
|  8> O 0.03426002134728394 0.2774163445993166 -0.8033508672593609
|  9> C -1.252211740182677 0.032488668634522946 -0.4101040485613176
| 10> C -1.6563830845386154 -0.3962250865605056 0.8556709442393141
| 11> C -3.0130327079411447 -0.6114038250933984 1.1240074304363883
| 12> C -3.963082321407044 -0.39891052576922836 0.1272195923588677
| 13> Cl -5.629229264462347 -0.6640614602748846 0.46209290192428204
| 14> C -3.569343021818067 0.026241645314402005 -1.1381656465125187
| 15> C -2.214630259768647 0.23988646809170247 -1.4032922995637858
| 16> H 4.431550396871882 -0.6756679084519654 1.753506785902326
| 17> H 3.472783626383767 1.46233992482362 1.1450663092872027
| 18> H 4.507187591031497 0.5572132324840943 0.008382876423279735
| 19> H 2.3163997116330224 1.4520295677637514 -0.9972166029541149
| 20> H 1.860892582281102 -0.6422584076470919 -1.9584550705486898
| 21> H 0.8613168157670036 0.8400504288604408 1.0226879388297663
| 22> H 1.0748796722620813 -0.8912140343213646 0.551043668635894
| 23> H -0.9447227951290922 -0.5773470417505804 1.654902601382934
| 24> H -3.3189566717803354 -0.9463265428279813 2.1117469086908014
| 25> H -4.30511052897424 0.19245499222318788 -1.919960986778744
| 26> H -1.9071253800064487 0.5718224451736161 -2.3921543786280615
| 27> *
| 28>
| 29>                          ****END OF INPUT****

CARTESIAN COORDINATES (ANGSTROEM)
---------------------------------
  O      3.524298   -0.560249    1.421523
  C      3.546583    0.557125    0.534584
  C      2.392320    0.494422   -0.469743
  O      2.694886   -0.486069   -1.476756
  C      1.056472    0.146241    0.196765
  O      0.034260    0.277416   -0.803351
  C     -1.252212    0.032489   -0.410104
  C     -1.656383   -0.396225    0.855671
  C     -3.013033   -0.611404    1.124007
  C     -3.963082   -0.398911    0.127220
  Cl    -5.629229   -0.664061    0.462093
  C     -3.569343    0.026242   -1.138166
  C     -2.214630    0.239886   -1.403292
  H      4.431550   -0.675668    1.753507
  H      3.472784    1.462340    1.145066
  H      4.507188    0.557213    0.008383
  H      2.316400    1.452030   -0.997217
  H      1.860893   -0.642258   -1.958455
  H      0.861317    0.840050    1.022688
  H      1.074880   -0.891214    0.551044
  H     -0.944723   -0.577347    1.654903
  H     -3.318957   -0.946327    2.111747
  H     -4.305111    0.192455   -1.919961
  H     -1.907125    0.571822   -2.392154

 Total Charge           Charge          ....    0
 Multiplicity           Mult            ....    1
 Number of Electrons    NEL             ....  106
 Basis Dimension        Dim             ....  241

ORBITAL ENERGIES
----------------

  NO   OCC          E(Eh)            E(eV)
   0   2.0000    -104.791192     -2851.5133
   1   2.0000     -20.592163      -560.3413
   2   2.0000     -20.555478      -559.3430
   3   2.0000     -20.545089      -559.0603
   4   2.0000     -11.317257      -307.9582
   5   2.0000     -11.299201      -307.4669
   6   2.0000     -11.295078      -307.3547
   7   2.0000     -11.292825      -307.2934
   8   2.0000     -11.291106      -307.2466
   9   2.0000     -11.260853      -306.4234
  10   2.0000     -11.258909      -306.3705
  11   2.0000     -11.252957      -306.2085
  12   2.0000     -11.248033      -306.0745
  13   2.0000     -10.555105      -287.2190
  14   2.0000      -8.030262      -218.5145
  15   2.0000      -8.026670      -218.4168
  16   2.0000      -8.026572      -218.4141
  17   2.0000      -1.406396       -38.2700
  18   2.0000      -1.349242       -36.7147
  19   2.0000      -1.326761       -36.1030
  20   2.0000      -1.183914       -32.2159
  21   2.0000      -1.113417       -30.2976
  22   2.0000      -1.038076       -28.2475
  23   2.0000      -1.023941       -27.8628
  24   2.0000      -0.981730       -26.7142
  25   2.0000      -0.924438       -25.1552
  26   2.0000      -0.853051       -23.2127
  27   2.0000      -0.811540       -22.0831
  28   2.0000      -0.797230       -21.6937
  29   2.0000      -0.740258       -20.1434
  30   2.0000      -0.710461       -19.3326
  31   2.0000      -0.704307       -19.1652
  32   2.0000      -0.676481       -18.4080
  33   2.0000      -0.667493       -18.1634
  34   2.0000      -0.653576       -17.7847
  35   2.0000      -0.630916       -17.1681
  36   2.0000      -0.611747       -16.6465
  37   2.0000      -0.607095       -16.5199
  38   2.0000      -0.597925       -16.2704
  39   2.0000      -0.591726       -16.1017
  40   2.0000      -0.562012       -15.2931
  41   2.0000      -0.552277       -15.0282
  42   2.0000      -0.533896       -14.5280
  43   2.0000      -0.531463       -14.4619
  44   2.0000      -0.509811       -13.8727
  45   2.0000      -0.504466       -13.7272
  46   2.0000      -0.482868       -13.1395
  47   2.0000      -0.456696       -12.4273
  48   2.0000      -0.449855       -12.2412
  49   2.0000      -0.449331       -12.2269
  50   2.0000      -0.446570       -12.1518
  51   2.0000      -0.357569        -9.7299
  52   2.0000      -0.318009        -8.6535
  53   0.0000       0.111743         3.0407
  54   0.0000       0.133187         3.6242
  55   0.0000       0.162762         4.4290
  56   0.0000       0.180790         4.9195
  57   0.0000       0.197111         5.3637

MULLIKEN ATOMIC CHARGES
-----------------------
   0 O :   -0.468704
   1 C :    0.274481
   2 C :    0.174219
   3 O :   -0.471294
   4 C :    0.244278
   5 O :   -0.582508
   6 C :    0.331388
   7 C :   -0.145899
   8 C :    0.025611
   9 C :    0.007959
  10 Cl:   -0.142505
  11 C :    0.013090
  12 C :   -0.075926
  13 H :    0.202420
  14 H :    0.018664
  15 H :    0.038725
  16 H :    0.033770
  17 H :    0.207830
  18 H :    0.036585
  19 H :    0.067745
  20 H :    0.055261
  21 H :    0.051631
  22 H :    0.051550
  23 H :    0.051630
Sum of atomic charges:   -0.0000000

LOEWDIN ATOMIC CHARGES
----------------------
   0 O :   -0.208852
   1 C :    0.123620
   2 C :    0.095579
   3 O :   -0.204211
   4 C :    0.127997
   5 O :   -0.205745
   6 C :    0.095089
   7 C :   -0.072463
   8 C :   -0.016301
   9 C :   -0.140943
  10 Cl:    0.088392
  11 C :   -0.018285
  12 C :   -0.041500
  13 H :    0.090895
  14 H :    0.002251
  15 H :    0.013321
  16 H :    0.012016
  17 H :    0.085572
  18 H :    0.012915
  19 H :    0.020979
  20 H :    0.033361
  21 H :    0.035333
  22 H :    0.035119
  23 H :    0.035860

  Mayer bond orders larger than 0.100000
B(  0-O ,  1-C ) :   0.9338 B(  0-O , 13-H ) :   0.9700 B(  1-C ,  2-C ) :   1.0228
B(  1-C , 14-H ) :   0.9693 B(  1-C , 15-H ) :   0.9809 B(  2-C ,  3-O ) :   0.9302
B(  2-C ,  4-C ) :   1.0154 B(  2-C , 16-H ) :   0.9694 B(  3-O , 17-H ) :   0.9633
B(  4-C ,  5-O ) :   0.8441 B(  4-C , 18-H ) :   0.9705 B(  4-C , 19-H ) :   0.9612
B(  5-O ,  6-C ) :   0.9803 B(  6-C ,  7-C ) :   1.3622 B(  6-C , 12-C ) :   1.3913
B(  7-C ,  8-C ) :   1.3946 B(  7-C , 20-H ) :   1.0039 B(  8-C ,  9-C ) :   1.4329
B(  8-C , 21-H ) :   0.9995 B(  9-C , 10-Cl) :   0.9399 B(  9-C , 11-C ) :   1.3897
B( 11-C , 12-C ) :   1.4427 B( 11-C , 22-H ) :   1.0015 B( 12-C , 23-H ) :   1.0026

FINAL SINGLE POINT ENERGY     -1030.697012183434

DIPOLE MOMENT
-------------
                                X             Y             Z
Electronic contribution:    -23.00900      -2.96490      -0.02945
Nuclear contribution   :     23.90771       3.62759       0.43610
                        -----------------------------------------
Total Dipole Moment    :      0.89871       0.66269       0.40664
                        -----------------------------------------
Magnitude (a.u.)       :      1.18836
Magnitude (Debye)      :      3.02057

Rotational constants in cm-1:     0.076734     0.007736     0.007195
Rotational constants in MHz :  2300.438108   231.914730   215.707580

                             ****ORCA TERMINATED NORMALLY****
TOTAL RUN TIME: 0 days 0 hours 0 minutes 6 seconds 487 msec
