                         Program Version 5.0.3 -  RELEASE  -
|  1> !RHF def2-SVP TightSCF PAL16
|  2> *xyz 0 1
|  3> C -1.152967632693563 2.527513263176825 -1.339056762107361
|  4> C -1.2926081503754552 1.4546696341154857 -0.22041500890766333
|  5> C -0.8629290612479097 2.1228058769380755 1.1025895433273538
|  6> C -2.8125398443427763 1.1816379328238058 -0.14979543062748019
|  7> C -3.096886218518426 -0.15115387285630072 0.4526793592565341
|  8> O -3.8812164497341977 -0.307441975945714 1.3845966565949293
|  9> C -2.4253727677559698 -1.2875311653853734 -0.24099366195709693
| 10> C -0.8972967439690667 -1.1169314495914577 -0.14437892211722703
| 11> C -0.4768287881696398 -1.5123835016225915 1.2904795108612412
| 12> C -0.32691358431867895 -2.184673721833127 -1.1126950000835054
| 13> N -0.4458012461559712 0.25810061153185787 -0.48355538139606574
| 14> C 0.9060239593717786 0.470399606630961 -1.028725244756018
| 15> C 2.097314668255462 -0.02503425829943047 -0.24305826033558972
| 16> C 3.056253666718261 -0.8521094712996383 -0.8431716225056497
| 17> C 4.181445330865023 -1.2560867041779828 -0.12920591677133297
| 18> C 4.329315946268047 -0.8031896612165803 1.1689219613991906
| 19> N 3.4461094950329425 0.01203102620422882 1.7792427594775524
| 20> C 2.359897972425842 0.3842003936486194 1.0599188349485347
| 21> H -1.9214930082044688 3.304167372222269 -1.2344687984929028
| 22> H -0.19411542066503773 3.054357497099007 -1.3136568612922697
| 23> H -1.276581549794465 2.0796292383201136 -2.332056415683433
| 24> H -1.4991414652148087 2.9859120577499247 1.3340031516292046
| 25> H -0.93138322295227 1.4370638443678287 1.951597292942597
| 26> H 0.16083102608427302 2.5049289150949976 1.046781133665906
| 27> H -3.340620716259423 1.9526602923177012 0.42358631768310634
| 28> H -3.2615330907438618 1.1646597629734743 -1.1518953166491368
| 29> H -2.767728481203036 -1.2865432608805485 -1.283840383130906
| 30> H -2.7639567365726334 -2.2295925030648363 0.20678955324674114
| 31> H -0.8088966469975856 -0.7833947153406164 2.0348730165801947
| 32> H 0.6034864598030519 -1.633796742975534 1.3910998639367056
| 33> H -0.9145970964947688 -2.4777325818066114 1.573883439766833
| 34> H -0.529363634643371 -1.9222946651026291 -2.1576733627151254
| 35> H 0.7486125414546551 -2.330944152733791 -0.9977148195426054
| 36> H -0.7874914009588384 -3.1639930579530215 -0.9310498236400223
| 37> H 0.9276664012332487 0.04296901308630673 -2.039418498287307
| 38> H 1.1221889114500443 1.5297820351371392 -1.1903305711207293
| 39> H 2.931369775747215 -1.1885255388851672 -1.8696748234020366
| 40> H 4.926385812676449 -1.9037947571791047 -0.5770861543663384
| 41> H 5.1886234847665476 -1.088263006035989 1.7686474971560375
| 42> H 1.6827375058323437 1.0379223907469983 1.5967546147188203
| 43> *
| 44>
| 45>                          ****END OF INPUT****

CARTESIAN COORDINATES (ANGSTROEM)
---------------------------------
  C     -1.152968    2.527513   -1.339057
  C     -1.292608    1.454670   -0.220415
  C     -0.862929    2.122806    1.102590
  C     -2.812540    1.181638   -0.149795
  C     -3.096886   -0.151154    0.452679
  O     -3.881216   -0.307442    1.384597
  C     -2.425373   -1.287531   -0.240994
  C     -0.897297   -1.116931   -0.144379
  C     -0.476829   -1.512384    1.290480
  C     -0.326914   -2.184674   -1.112695
  N     -0.445801    0.258101   -0.483555
  C      0.906024    0.470400   -1.028725
  C      2.097315   -0.025034   -0.243058
  C      3.056254   -0.852109   -0.843172
  C      4.181445   -1.256087   -0.129206
  C      4.329316   -0.803190    1.168922
  N      3.446109    0.012031    1.779243
  C      2.359898    0.384200    1.059919
  H     -1.921493    3.304167   -1.234469
  H     -0.194115    3.054357   -1.313657
  H     -1.276582    2.079629   -2.332056
  H     -1.499141    2.985912    1.334003
  H     -0.931383    1.437064    1.951597
  H      0.160831    2.504929    1.046781
  H     -3.340621    1.952660    0.423586
  H     -3.261533    1.164660   -1.151895
  H     -2.767728   -1.286543   -1.283840
  H     -2.763957   -2.229593    0.206790
  H     -0.808897   -0.783395    2.034873
  H      0.603486   -1.633797    1.391100
  H     -0.914597   -2.477733    1.573883
  H     -0.529364   -1.922295   -2.157673
  H      0.748613   -2.330944   -0.997715
  H     -0.787491   -3.163993   -0.931050
  H      0.927666    0.042969   -2.039418
  H      1.122189    1.529782   -1.190331
  H      2.931370   -1.188526   -1.869675
  H      4.926386   -1.903795   -0.577086
  H      5.188623   -1.088263    1.768647
  H      1.682738    1.037922    1.596755

 Total Charge           Charge          ....    0
 Multiplicity           Mult            ....    1
 Number of Electrons    NEL             ....  134
 Basis Dimension        Dim             ....  362

ORBITAL ENERGIES
----------------

  NO   OCC          E(Eh)            E(eV)
   0   2.0000     -20.534702      -558.7776
   1   2.0000     -15.566589      -423.5884
   2   2.0000     -15.552233      -423.1978
   3   2.0000     -11.322674      -308.1056
   4   2.0000     -11.289527      -307.2036
   5   2.0000     -11.286566      -307.1231
   6   2.0000     -11.277432      -306.8745
   7   2.0000     -11.276670      -306.8538
   8   2.0000     -11.276421      -306.8470
   9   2.0000     -11.263540      -306.4965
  10   2.0000     -11.250241      -306.1346
  11   2.0000     -11.246984      -306.0460
  12   2.0000     -11.239566      -305.8441
  13   2.0000     -11.235927      -305.7451
  14   2.0000     -11.233526      -305.6798
  15   2.0000     -11.230493      -305.5972
  16   2.0000     -11.224277      -305.4281
  17   2.0000     -11.216023      -305.2035
  18   2.0000      -1.355296       -36.8795
  19   2.0000      -1.243176       -33.8285
  20   2.0000      -1.225189       -33.3391
  21   2.0000      -1.098672       -29.8964
  22   2.0000      -1.091732       -29.7075
  23   2.0000      -1.064953       -28.9789
  24   2.0000      -1.030990       -28.0547
  25   2.0000      -0.984648       -26.7936
  26   2.0000      -0.940569       -25.5942
  27   2.0000      -0.938557       -25.5394
  28   2.0000      -0.926991       -25.2247
  29   2.0000      -0.917155       -24.9570
  30   2.0000      -0.856983       -23.3197
  31   2.0000      -0.826817       -22.4988
  32   2.0000      -0.795819       -21.6553
  33   2.0000      -0.762887       -20.7592
  34   2.0000      -0.718779       -19.5590
  35   2.0000      -0.704821       -19.1791
  36   2.0000      -0.684794       -18.6342
  37   2.0000      -0.671281       -18.2665
  38   2.0000      -0.658118       -17.9083
  39   2.0000      -0.637808       -17.3556
  40   2.0000      -0.631537       -17.1850
  41   2.0000      -0.628125       -17.0921
  42   2.0000      -0.620916       -16.8960
  43   2.0000      -0.604147       -16.4397
  44   2.0000      -0.598961       -16.2986
  45   2.0000      -0.584831       -15.9141
  46   2.0000      -0.574059       -15.6209
  47   2.0000      -0.569475       -15.4962
  48   2.0000      -0.558532       -15.1984
  49   2.0000      -0.552702       -15.0398
  50   2.0000      -0.551554       -15.0086
  51   2.0000      -0.542495       -14.7620
  52   2.0000      -0.533540       -14.5184
  53   2.0000      -0.529261       -14.4019
  54   2.0000      -0.526823       -14.3356
  55   2.0000      -0.519082       -14.1250
  56   2.0000      -0.515434       -14.0257
  57   2.0000      -0.499100       -13.5812
  58   2.0000      -0.486250       -13.2315
  59   2.0000      -0.481050       -13.0900
  60   2.0000      -0.474831       -12.9208
  61   2.0000      -0.458572       -12.4784
  62   2.0000      -0.420765       -11.4496
  63   2.0000      -0.399116       -10.8605
  64   2.0000      -0.380354       -10.3499
  65   2.0000      -0.352429        -9.5901
  66   2.0000      -0.334396        -9.0994
  67   0.0000       0.106484         2.8976
  68   0.0000       0.120944         3.2911
  69   0.0000       0.140612         3.8262
  70   0.0000       0.165817         4.5121
  71   0.0000       0.184400         5.0178

MULLIKEN ATOMIC CHARGES
-----------------------
   0 C :    0.049512
   1 C :   -0.199088
   2 C :    0.093111
   3 C :    0.064530
   4 C :    0.186117
   5 O :   -0.378077
   6 C :    0.067068
   7 C :   -0.204245
   8 C :    0.085667
   9 C :    0.056857
  10 N :   -0.691922
  11 C :    0.372096
  12 C :   -0.291519
  13 C :    0.052414
  14 C :   -0.110689
  15 C :    0.148932
  16 N :   -0.366514
  17 C :    0.174136
  18 H :    0.035622
  19 H :    0.028989
  20 H :    0.035385
  21 H :    0.021560
  22 H :    0.039142
  23 H :    0.030900
  24 H :    0.059910
  25 H :    0.054186
  26 H :    0.048071
  27 H :    0.057464
  28 H :    0.036293
  29 H :    0.053760
  30 H :    0.020383
  31 H :    0.030955
  32 H :    0.035660
  33 H :    0.035209
  34 H :    0.016825
  35 H :    0.058104
  36 H :    0.044310
  37 H :    0.047621
  38 H :    0.052470
  39 H :    0.048796
Sum of atomic charges:   -0.0000000

LOEWDIN ATOMIC CHARGES
----------------------
   0 C :   -0.026868
   1 C :    0.035977
   2 C :   -0.029585
   3 C :   -0.025288
   4 C :    0.148965
   5 O :   -0.245063
   6 C :   -0.026999
   7 C :    0.035444
   8 C :   -0.030973
   9 C :   -0.025469
  10 N :   -0.204941
  11 C :    0.089565
  12 C :   -0.080363
  13 C :    0.016746
  14 C :   -0.064533
  15 C :    0.049918
  16 N :   -0.139182
  17 C :    0.061642
  18 H :    0.020777
  19 H :    0.010906
  20 H :    0.016427
  21 H :    0.014564
  22 H :    0.016246
  23 H :    0.011122
  24 H :    0.035181
  25 H :    0.033167
  26 H :    0.028382
  27 H :    0.033633
  28 H :    0.015049
  29 H :    0.018885
  30 H :    0.015393
  31 H :    0.014704
  32 H :    0.014839
  33 H :    0.022833
  34 H :    0.008438
  35 H :    0.029883
  36 H :    0.027401
  37 H :    0.030720
  38 H :    0.021764
  39 H :    0.020693

  Mayer bond orders larger than 0.100000
B(  0-C ,  1-C ) :   1.0232 B(  0-C , 18-H ) :   0.9778 B(  0-C , 19-H ) :   0.9831
B(  0-C , 20-H ) :   0.9789 B(  1-C ,  2-C ) :   0.9835 B(  1-C ,  3-C ) :   0.9917
B(  1-C , 10-N ) :   0.8820 B(  2-C , 21-H ) :   0.9773 B(  2-C , 22-H ) :   0.9819
B(  2-C , 23-H ) :   0.9779 B(  3-C ,  4-C ) :   0.9803 B(  3-C , 24-H ) :   0.9585
B(  3-C , 25-H ) :   0.9610 B(  4-C ,  5-O ) :   2.0680 B(  4-C ,  6-C ) :   0.9785
B(  6-C ,  7-C ) :   1.0024 B(  6-C , 26-H ) :   0.9606 B(  6-C , 27-H ) :   0.9591
B(  7-C ,  8-C ) :   0.9783 B(  7-C ,  9-C ) :   1.0315 B(  7-C , 10-N ) :   0.8630
B(  8-C , 28-H ) :   0.9800 B(  8-C , 29-H ) :   0.9814 B(  8-C , 30-H ) :   0.9778
B(  9-C , 31-H ) :   0.9798 B(  9-C , 32-H ) :   0.9800 B(  9-C , 33-H ) :   0.9765
B( 10-N , 11-C ) :   0.9457 B( 11-C , 12-C ) :   0.9627 B( 11-C , 34-H ) :   0.9829
B( 11-C , 35-H ) :   0.9721 B( 12-C , 13-C ) :   1.4429 B( 12-C , 17-C ) :   1.3866
B( 13-C , 14-C ) :   1.4305 B( 13-C , 36-H ) :   0.9919 B( 14-C , 15-C ) :   1.4084
B( 14-C , 37-H ) :   0.9911 B( 15-C , 16-N ) :   1.4610 B( 15-C , 38-H ) :   1.0000
B( 16-N , 17-C ) :   1.4713 B( 17-C , 39-H ) :   1.0115

FINAL SINGLE POINT ENERGY      -763.984954744362

DIPOLE MOMENT
-------------
                                X             Y             Z
Electronic contribution:      4.98508      -2.09695       4.31260
Nuclear contribution   :     -4.27931       2.07427      -6.17511
                        -----------------------------------------
Total Dipole Moment    :      0.70577      -0.02268      -1.86252
                        -----------------------------------------
Magnitude (a.u.)       :      1.99188
Magnitude (Debye)      :      5.06296

Rotational constants in cm-1:     0.025982     0.009279     0.008561
Rotational constants in MHz :   778.912147   278.187467   256.666787

                             ****ORCA TERMINATED NORMALLY****
TOTAL RUN TIME: 0 days 0 hours 0 minutes 23 seconds 659 msec
