                         Program Version 5.0.3 -  RELEASE  -
|  1> !RHF def2-SVP TightSCF PAL16
|  2> *xyz 0 1
|  3> C -5.514709991171729 -0.01626744005341412 -0.693889981637402
|  4> C -4.4349786499101835 -1.064024633766168 -0.37244532371007066
|  5> C -3.857447298158985 -0.8060213151628841 1.0267268729003516
|  6> C -5.100163678761503 -2.4547712172169684 -0.37491915306386586
|  7> N -3.414621651966287 -1.0911131223492974 -1.429775960268027
|  8> C -2.527587251154409 0.0704168403138072 -1.5604437954216113
|  9> C -1.1666423694300114 -0.12761900411758337 -0.8618245298040977
| 10> O -0.5822152118981854 -1.3658045858925476 -1.3000492642886001
| 11> C -0.2166251825692608 1.0329390559259428 -1.1871609949418551
| 12> O 1.0262539572777623 0.8662380779960006 -0.49292321344444395
| 13> C 1.160734717282914 1.3945374551191483 0.7696645136632686
| 14> C 0.12813913022365697 1.9670181095367902 1.5180052903209116
| 15> C 0.3807140234987285 2.4585227522801834 2.8003624234681745
| 16> C 1.6609776404896333 2.378531208501973 3.340498884781471
| 17> C 2.6987813209212916 1.8057410331706496 2.6032859965558317
| 18> C 2.4598973783341918 1.3112626006052586 1.3194438511264186
| 19> N 3.4568155267231355 0.7219336100779395 0.5149233427026385
| 20> C 4.790899103932647 0.5071062787545036 0.7930171212371238
| 21> O 5.357297853133424 0.8073431568229964 1.8390009566702088
| 22> C 5.492369304690172 -0.13395410706704983 -0.30601053200942796
| 23> C 6.8136148116180415 -0.5171384887227146 -0.44196432938534513
| 24> C 6.941252376807462 -1.0978297334298153 -1.726298043714462
| 25> C 5.6935349128547355 -1.0363798560811444 -2.2995317567301177
| 26> O 4.806357594842261 -0.4554646262844572 -1.4512666985918408
| 27> H -5.12757053361774 1.0065404065724854 -0.6424191559411059
| 28> H -6.346400614710488 -0.08111761751917453 0.01763669867078377
| 29> H -5.93040469067701 -0.16725954596780773 -1.6971228538310372
| 30> H -3.070641602236512 -1.5280414527320496 1.273001991415661
| 31> H -3.439005073684692 0.20215026299687042 1.1162084658899678
| 32> H -4.635443527206949 -0.8981261568760642 1.7938047300082498
| 33> H -5.902616001954931 -2.510815655742969 0.3699586327518675
| 34> H -5.54243471360232 -2.6862529585811923 -1.3514198615235757
| 35> H -4.3778211758640895 -3.245548441685676 -0.13932499079155944
| 36> H -2.8170180425987246 -1.9196443603445594 -1.339248817411712
| 37> H -2.9976018154763393 1.001918005715008 -1.230480911956568
| 38> H -2.342000935867205 0.1819527542794216 -2.635928117734901
| 39> H -1.2957590653706705 -0.21908754135082922 0.2194431291499271
| 40> H 0.31405583436327944 -1.3930465193918415 -0.9156229531389494
| 41> H 0.03808727094712108 0.9972679560445095 -2.2531892670272926
| 42> H -0.6603907001180823 2.0182690822818268 -1.0071513998926007
| 43> H -0.886805945695957 2.043211511607089 1.1453749504066273
| 44> H -0.4239245717715195 2.9032614192372606 3.3812116101083767
| 45> H 1.8571855072179557 2.761083097799373 4.339369576582638
| 46> H 3.6826604762233264 1.7617210877033465 3.059312290702852
| 47> H 3.14251594284473 0.4197686464336833 -0.4037362802660734
| 48> H 7.583067419036098 -0.3862055853664367 0.3073044582743898
| 49> H 7.832407984956252 -1.5104761972807015 -2.178374355043418
| 50> H 5.2932102072548695 -1.3469002796859382 -3.255033245818306
| 51> *
| 52>
| 53>                          ****END OF INPUT****

CARTESIAN COORDINATES (ANGSTROEM)
---------------------------------
  C     -5.514710   -0.016267   -0.693890
  C     -4.434979   -1.064025   -0.372445
  C     -3.857447   -0.806021    1.026727
  C     -5.100164   -2.454771   -0.374919
  N     -3.414622   -1.091113   -1.429776
  C     -2.527587    0.070417   -1.560444
  C     -1.166642   -0.127619   -0.861825
  O     -0.582215   -1.365805   -1.300049
  C     -0.216625    1.032939   -1.187161
  O      1.026254    0.866238   -0.492923
  C      1.160735    1.394537    0.769665
  C      0.128139    1.967018    1.518005
  C      0.380714    2.458523    2.800362
  C      1.660978    2.378531    3.340499
  C      2.698781    1.805741    2.603286
  C      2.459897    1.311263    1.319444
  N      3.456816    0.721934    0.514923
  C      4.790899    0.507106    0.793017
  O      5.357298    0.807343    1.839001
  C      5.492369   -0.133954   -0.306011
  C      6.813615   -0.517138   -0.441964
  C      6.941252   -1.097830   -1.726298
  C      5.693535   -1.036380   -2.299532
  O      4.806358   -0.455465   -1.451267
  H     -5.127571    1.006540   -0.642419
  H     -6.346401   -0.081118    0.017637
  H     -5.930405   -0.167260   -1.697123
  H     -3.070642   -1.528041    1.273002
  H     -3.439005    0.202150    1.116208
  H     -4.635444   -0.898126    1.793805
  H     -5.902616   -2.510816    0.369959
  H     -5.542435   -2.686253   -1.351420
  H     -4.377821   -3.245548   -0.139325
  H     -2.817018   -1.919644   -1.339249
  H     -2.997602    1.001918   -1.230481
  H     -2.342001    0.181953   -2.635928
  H     -1.295759   -0.219088    0.219443
  H      0.314056   -1.393047   -0.915623
  H      0.038087    0.997268   -2.253189
  H     -0.660391    2.018269   -1.007151
  H     -0.886806    2.043212    1.145375
  H     -0.423925    2.903261    3.381212
  H      1.857186    2.761083    4.339370
  H      3.682660    1.761721    3.059312
  H      3.142516    0.419769   -0.403736
  H      7.583067   -0.386206    0.307304
  H      7.832408   -1.510476   -2.178374
  H      5.293210   -1.346900   -3.255033

 Total Charge           Charge          ....    0
 Multiplicity           Mult            ....    1
 Number of Electrons    NEL             ....  178
 Basis Dimension        Dim             ....  456

ORBITAL ENERGIES
----------------

  NO   OCC          E(Eh)            E(eV)
   0   2.0000     -20.646903      -561.8308
   1   2.0000     -20.598879      -560.5240
   2   2.0000     -20.556446      -559.3693
   3   2.0000     -20.522064      -558.4338
   4   2.0000     -15.599232      -424.4767
   5   2.0000     -15.530659      -422.6107
   6   2.0000     -11.372353      -309.4575
   7   2.0000     -11.324895      -308.1661
   8   2.0000     -11.314029      -307.8704
   9   2.0000     -11.307490      -307.6925
  10   2.0000     -11.305449      -307.6369
  11   2.0000     -11.290832      -307.2392
  12   2.0000     -11.289681      -307.2078
  13   2.0000     -11.264804      -306.5309
  14   2.0000     -11.260514      -306.4142
  15   2.0000     -11.259306      -306.3813
  16   2.0000     -11.255884      -306.2882
  17   2.0000     -11.247358      -306.0562
  18   2.0000     -11.241195      -305.8885
  19   2.0000     -11.235886      -305.7440
  20   2.0000     -11.234721      -305.7123
  21   2.0000     -11.219484      -305.2977
  22   2.0000     -11.217753      -305.2506
  23   2.0000     -11.216278      -305.2104
  24   2.0000      -1.472860       -40.0786
  25   2.0000      -1.411140       -38.3991
  26   2.0000      -1.369163       -37.2568
  27   2.0000      -1.342567       -36.5331
  28   2.0000      -1.239051       -33.7163
  29   2.0000      -1.194203       -32.4959
  30   2.0000      -1.137221       -30.9453
  31   2.0000      -1.098805       -29.9000
  32   2.0000      -1.058370       -28.7997
  33   2.0000      -1.046900       -28.4876
  34   2.0000      -1.025623       -27.9086
  35   2.0000      -1.003833       -27.3157
  36   2.0000      -0.986507       -26.8442
  37   2.0000      -0.926821       -25.2201
  38   2.0000      -0.924560       -25.1586
  39   2.0000      -0.904859       -24.6225
  40   2.0000      -0.887802       -24.1583
  41   2.0000      -0.833538       -22.6817
  42   2.0000      -0.827411       -22.5150
  43   2.0000      -0.819025       -22.2868
  44   2.0000      -0.803805       -21.8726
  45   2.0000      -0.775747       -21.1091
  46   2.0000      -0.762399       -20.7459
  47   2.0000      -0.749039       -20.3824
  48   2.0000      -0.731947       -19.9173
  49   2.0000      -0.715208       -19.4618
  50   2.0000      -0.697002       -18.9664
  51   2.0000      -0.681538       -18.5456
  52   2.0000      -0.676940       -18.4205
  53   2.0000      -0.668684       -18.1958
  54   2.0000      -0.654670       -17.8145
  55   2.0000      -0.641988       -17.4694
  56   2.0000      -0.635189       -17.2844
  57   2.0000      -0.623660       -16.9706
  58   2.0000      -0.613011       -16.6809
  59   2.0000      -0.610454       -16.6113
  60   2.0000      -0.609416       -16.5830
  61   2.0000      -0.599644       -16.3171
  62   2.0000      -0.595708       -16.2100
  63   2.0000      -0.592623       -16.1261
  64   2.0000      -0.588710       -16.0196
  65   2.0000      -0.585284       -15.9264
  66   2.0000      -0.569796       -15.5049
  67   2.0000      -0.568796       -15.4777
  68   2.0000      -0.559558       -15.2263
  69   2.0000      -0.549293       -14.9470
  70   2.0000      -0.543477       -14.7888
  71   2.0000      -0.534194       -14.5362
  72   2.0000      -0.522352       -14.2139
  73   2.0000      -0.520722       -14.1696
  74   2.0000      -0.513187       -13.9645
  75   2.0000      -0.510544       -13.8926
  76   2.0000      -0.504027       -13.7153
  77   2.0000      -0.498748       -13.5716
  78   2.0000      -0.483448       -13.1553
  79   2.0000      -0.472277       -12.8513
  80   2.0000      -0.462026       -12.5724
  81   2.0000      -0.445812       -12.1312
  82   2.0000      -0.442220       -12.0334
  83   2.0000      -0.437987       -11.9182
  84   2.0000      -0.419583       -11.4174
  85   2.0000      -0.358092        -9.7442
  86   2.0000      -0.343927        -9.3587
  87   2.0000      -0.333139        -9.0652
  88   2.0000      -0.300247        -8.1701
  89   0.0000       0.080109         2.1799
  90   0.0000       0.131844         3.5877
  91   0.0000       0.143991         3.9182
  92   0.0000       0.155231         4.2241
  93   0.0000       0.175616         4.7788

MULLIKEN ATOMIC CHARGES
-----------------------
   0 C :    0.065725
   1 C :   -0.256991
   2 C :    0.047942
   3 C :    0.049708
   4 N :   -0.464249
   5 C :    0.202108
   6 C :    0.113121
   7 O :   -0.475700
   8 C :    0.296450
   9 O :   -0.619738
  10 C :    0.323472
  11 C :   -0.131657
  12 C :   -0.015787
  13 C :   -0.032786
  14 C :   -0.065222
  15 C :    0.134108
  16 N :   -0.414885
  17 C :    0.507959
  18 O :   -0.439912
  19 C :    0.119809
  20 C :   -0.010873
  21 C :   -0.111900
  22 C :    0.240922
  23 O :   -0.458118
  24 H :    0.016057
  25 H :    0.023688
  26 H :    0.038881
  27 H :    0.033439
  28 H :    0.016801
  29 H :    0.025518
  30 H :    0.023193
  31 H :    0.039574
  32 H :    0.023744
  33 H :    0.149467
  34 H :    0.025088
  35 H :    0.030016
  36 H :    0.035264
  37 H :    0.211022
  38 H :    0.050509
  39 H :    0.041750
  40 H :    0.036862
  41 H :    0.040047
  42 H :    0.042795
  43 H :    0.082245
  44 H :    0.195338
  45 H :    0.076135
  46 H :    0.064146
  47 H :    0.074913
Sum of atomic charges:   -0.0000000

LOEWDIN ATOMIC CHARGES
----------------------
   0 C :   -0.025415
   1 C :    0.004392
   2 C :   -0.037387
   3 C :   -0.023062
   4 N :   -0.149110
   5 C :    0.056072
   6 C :    0.080448
   7 O :   -0.202128
   8 C :    0.127453
   9 O :   -0.209915
  10 C :    0.074069
  11 C :   -0.073242
  12 C :   -0.028909
  13 C :   -0.033457
  14 C :   -0.022602
  15 C :    0.033894
  16 N :   -0.050925
  17 C :    0.177033
  18 O :   -0.303957
  19 C :    0.004479
  20 C :    0.002194
  21 C :   -0.082052
  22 C :    0.111568
  23 O :   -0.092888
  24 H :    0.007765
  25 H :    0.016088
  26 H :    0.020496
  27 H :    0.014362
  28 H :    0.006352
  29 H :    0.016503
  30 H :    0.014019
  31 H :    0.019344
  32 H :    0.012355
  33 H :    0.059008
  34 H :    0.011894
  35 H :    0.014752
  36 H :    0.003345
  37 H :    0.087656
  38 H :    0.023621
  39 H :    0.013133
  40 H :    0.025008
  41 H :    0.027375
  42 H :    0.028623
  43 H :    0.043229
  44 H :    0.086446
  45 H :    0.046029
  46 H :    0.035773
  47 H :    0.030272

  Mayer bond orders larger than 0.100000
B(  0-C ,  1-C ) :   1.0037 B(  0-C , 24-H ) :   0.9803 B(  0-C , 25-H ) :   0.9828
B(  0-C , 26-H ) :   0.9816 B(  1-C ,  2-C ) :   0.9865 B(  1-C ,  3-C ) :   1.0169
B(  1-C ,  4-N ) :   0.9337 B(  2-C , 27-H ) :   0.9787 B(  2-C , 28-H ) :   0.9799
B(  2-C , 29-H ) :   0.9770 B(  3-C , 30-H ) :   0.9846 B(  3-C , 31-H ) :   0.9835
B(  3-C , 32-H ) :   0.9824 B(  4-N ,  5-C ) :   0.9856 B(  4-N , 33-H ) :   0.9486
B(  5-C ,  6-C ) :   1.0169 B(  5-C , 34-H ) :   0.9730 B(  5-C , 35-H ) :   0.9659
B(  6-C ,  7-O ) :   0.8982 B(  6-C ,  8-C ) :   1.0163 B(  6-C , 36-H ) :   0.9583
B(  7-O , 37-H ) :   0.9605 B(  8-C ,  9-O ) :   0.8295 B(  8-C , 38-H ) :   0.9656
B(  8-C , 39-H ) :   0.9777 B(  9-O , 10-C ) :   0.9363 B( 10-C , 11-C ) :   1.3928
B( 10-C , 15-C ) :   1.3706 B( 11-C , 12-C ) :   1.3787 B( 11-C , 40-H ) :   1.0066
B( 12-C , 13-C ) :   1.4328 B( 12-C , 41-H ) :   1.0003 B( 13-C , 14-C ) :   1.3816
B( 13-C , 42-H ) :   1.0011 B( 14-C , 15-C ) :   1.4362 B( 14-C , 43-H ) :   1.0019
B( 15-C , 16-N ) :   1.0036 B( 16-N , 17-C ) :   1.1379 B( 16-N , 44-H ) :   0.9015
B( 17-C , 18-O ) :   1.9733 B( 17-C , 19-C ) :   0.9832 B( 19-C , 20-C ) :   1.6562
B( 19-C , 23-O ) :   0.9725 B( 20-C , 21-C ) :   1.2184 B( 20-C , 45-H ) :   1.0017
B( 21-C , 22-C ) :   1.6420 B( 21-C , 46-H ) :   1.0014 B( 22-C , 23-O ) :   1.0468
B( 22-C , 47-H ) :   1.0036

FINAL SINGLE POINT ENERGY     -1103.090130387542

DIPOLE MOMENT
-------------
                                X             Y             Z
Electronic contribution:     46.47597       6.40194       2.12168
Nuclear contribution   :    -46.64330      -6.37865      -2.93714
                        -----------------------------------------
Total Dipole Moment    :     -0.16733       0.02328      -0.81546
                        -----------------------------------------
Magnitude (a.u.)       :      0.83278
Magnitude (Debye)      :      2.11676

Rotational constants in cm-1:     0.012975     0.003330     0.002804
Rotational constants in MHz :   388.987682    99.826406    84.060662

                             ****ORCA TERMINATED NORMALLY****
TOTAL RUN TIME: 0 days 0 hours 0 minutes 29 seconds 517 msec
