                         Program Version 5.0.3 -  RELEASE  -
|  1> !RHF def2-SVP TightSCF PAL16
|  2> *xyz 0 1
|  3> C -1.4904593978187302 2.2144788030190035 -1.4655329337479481
|  4> C -2.635469124232145 1.2397668640332327 -1.3370390548690292
|  5> C -3.914158347563849 1.5414904837293384 -1.8539712045743442
|  6> Cl -4.271852152841055 3.0437117628041923 -2.637297776949175
|  7> C -4.965810649132473 0.6278036572307295 -1.755934208240992
|  8> C -4.760998940974146 -0.6024852574734494 -1.1485840523877184
|  9> C -3.5087170598970285 -0.9113183794747417 -0.6200150991684447
| 10> C -2.4405239236373517 0.001020906446570009 -0.6659380673126934
| 11> N -1.1636144798475951 -0.34685679545982734 -0.15462164325304276
| 12> C -0.8071770741242296 -1.2552519460587763 0.8740762678266567
| 13> N -1.779148543494178 -1.8291331234658275 1.626049238403901
| 14> C -1.4361509169771653 -2.7390613803905612 2.5652113550673667
| 15> C -0.13759221776319638 -3.135951601921043 2.809655572289528
| 16> C 0.8678948964952711 -2.5551529764203837 2.05028087142543
| 17> C 0.5397470376965986 -1.5957957648516927 1.0804984761213183
| 18> C 1.6610038843945847 -1.0091671757555696 0.31705158143297857
| 19> O 2.6997505473091317 -1.606677289519694 0.07691738940242668
| 20> O 1.424929128388389 0.2991274704477893 0.03755877389592433
| 21> C 2.441329185972059 0.9642379476310213 -0.7331139298171355
| 22> C 3.4405195453456456 1.729403953466424 0.14300486510623842
| 23> O 4.347393351240589 2.429644969958675 -0.7196706133612566
| 24> C 4.259681289450249 0.8479635712267221 1.0921827423956987
| 25> O 5.006557402021473 -0.1126909734756733 0.34506935492114993
| 26> H -1.211970152671237 2.5956350386597093 -0.4774779242044265
| 27> H -0.6267103976522389 1.7204322158811394 -1.9232794838148226
| 28> H -1.711766278771043 3.0768872221501877 -2.097554859151317
| 29> H -5.945582385649094 0.86771701622876 -2.161094942144069
| 30> H -5.569852489636888 -1.3252377056843183 -1.0848275917673633
| 31> H -3.3767015512072542 -1.8925527719776887 -0.1713737364045349
| 32> H -0.5247153508796722 0.4422975723190685 -0.12440893088136723
| 33> H -2.267054506738176 -3.15577831525392 3.1282650839553123
| 34> H 0.08518705160908423 -3.8775624256837062 3.5688370006189527
| 35> H 1.90331854727357 -2.846736635770852 2.2131858079612443
| 36> H 2.947654253912468 0.27576753068876336 -1.4218987219081238
| 37> H 1.9238042098333183 1.6794018029230833 -1.3837292858109065
| 38> H 2.901836077055775 2.47484461068973 0.7382242918917421
| 39> H 5.065727741664646 1.7953311846534812 -0.9225099385730285
| 40> H 4.989450384647509 1.4626693785114635 1.6292221639094175
| 41> H 3.637893274242705 0.33540105891672956 1.8319655066727805
| 42> H 4.402348132954563 -0.8676245029770595 0.16801346992733585
| 43> *
| 44>
| 45>                          ****END OF INPUT****

CARTESIAN COORDINATES (ANGSTROEM)
---------------------------------
  C     -1.490459    2.214479   -1.465533
  C     -2.635469    1.239767   -1.337039
  C     -3.914158    1.541490   -1.853971
  Cl    -4.271852    3.043712   -2.637298
  C     -4.965811    0.627804   -1.755934
  C     -4.760999   -0.602485   -1.148584
  C     -3.508717   -0.911318   -0.620015
  C     -2.440524    0.001021   -0.665938
  N     -1.163614   -0.346857   -0.154622
  C     -0.807177   -1.255252    0.874076
  N     -1.779149   -1.829133    1.626049
  C     -1.436151   -2.739061    2.565211
  C     -0.137592   -3.135952    2.809656
  C      0.867895   -2.555153    2.050281
  C      0.539747   -1.595796    1.080498
  C      1.661004   -1.009167    0.317052
  O      2.699751   -1.606677    0.076917
  O      1.424929    0.299127    0.037559
  C      2.441329    0.964238   -0.733114
  C      3.440520    1.729404    0.143005
  O      4.347393    2.429645   -0.719671
  C      4.259681    0.847964    1.092183
  O      5.006557   -0.112691    0.345069
  H     -1.211970    2.595635   -0.477478
  H     -0.626710    1.720432   -1.923279
  H     -1.711766    3.076887   -2.097555
  H     -5.945582    0.867717   -2.161095
  H     -5.569852   -1.325238   -1.084828
  H     -3.376702   -1.892553   -0.171374
  H     -0.524715    0.442298   -0.124409
  H     -2.267055   -3.155778    3.128265
  H      0.085187   -3.877562    3.568837
  H      1.903319   -2.846737    2.213186
  H      2.947654    0.275768   -1.421899
  H      1.923804    1.679402   -1.383729
  H      2.901836    2.474845    0.738224
  H      5.065728    1.795331   -0.922510
  H      4.989450    1.462669    1.629222
  H      3.637893    0.335401    1.831966
  H      4.402348   -0.867625    0.168013

 Total Charge           Charge          ....    0
 Multiplicity           Mult            ....    1
 Number of Electrons    NEL             ....  176
 Basis Dimension        Dim             ....  411

ORBITAL ENERGIES
----------------

  NO   OCC          E(Eh)            E(eV)
   0   2.0000    -104.794075     -2851.5918
   1   2.0000     -20.639607      -561.6323
   2   2.0000     -20.581402      -560.0484
   3   2.0000     -20.556566      -559.3726
   4   2.0000     -20.545642      -559.0753
   5   2.0000     -15.600852      -424.5208
   6   2.0000     -15.582736      -424.0278
   7   2.0000     -11.431978      -311.0799
   8   2.0000     -11.363382      -309.2133
   9   2.0000     -11.313149      -307.8464
  10   2.0000     -11.312798      -307.8369
  11   2.0000     -11.300403      -307.4996
  12   2.0000     -11.299360      -307.4712
  13   2.0000     -11.298160      -307.4386
  14   2.0000     -11.298006      -307.4344
  15   2.0000     -11.288302      -307.1703
  16   2.0000     -11.276779      -306.8568
  17   2.0000     -11.260954      -306.4261
  18   2.0000     -11.259621      -306.3899
  19   2.0000     -11.243874      -305.9614
  20   2.0000     -11.242950      -305.9362
  21   2.0000     -11.239626      -305.8458
  22   2.0000     -11.235472      -305.7327
  23   2.0000     -10.557677      -287.2890
  24   2.0000      -8.032781      -218.5831
  25   2.0000      -8.029256      -218.4872
  26   2.0000      -8.029163      -218.4846
  27   2.0000      -1.481719       -40.3196
  28   2.0000      -1.383002       -37.6334
  29   2.0000      -1.355652       -36.8892
  30   2.0000      -1.322876       -35.9973
  31   2.0000      -1.297353       -35.3028
  32   2.0000      -1.228376       -33.4258
  33   2.0000      -1.175654       -31.9912
  34   2.0000      -1.119322       -30.4583
  35   2.0000      -1.105229       -30.0748
  36   2.0000      -1.066316       -29.0159
  37   2.0000      -1.042388       -28.3648
  38   2.0000      -1.029126       -28.0040
  39   2.0000      -0.981555       -26.7095
  40   2.0000      -0.961188       -26.1552
  41   2.0000      -0.933411       -25.3994
  42   2.0000      -0.903903       -24.5965
  43   2.0000      -0.882493       -24.0139
  44   2.0000      -0.838879       -22.8271
  45   2.0000      -0.815379       -22.1876
  46   2.0000      -0.811141       -22.0723
  47   2.0000      -0.800226       -21.7753
  48   2.0000      -0.765345       -20.8261
  49   2.0000      -0.742080       -20.1930
  50   2.0000      -0.732502       -19.9324
  51   2.0000      -0.718505       -19.5515
  52   2.0000      -0.705798       -19.2057
  53   2.0000      -0.693140       -18.8613
  54   2.0000      -0.684609       -18.6292
  55   2.0000      -0.681464       -18.5436
  56   2.0000      -0.671765       -18.2797
  57   2.0000      -0.656619       -17.8675
  58   2.0000      -0.635728       -17.2990
  59   2.0000      -0.627367       -17.0715
  60   2.0000      -0.625553       -17.0222
  61   2.0000      -0.610775       -16.6200
  62   2.0000      -0.606724       -16.5098
  63   2.0000      -0.604255       -16.4426
  64   2.0000      -0.593176       -16.1411
  65   2.0000      -0.581149       -15.8139
  66   2.0000      -0.576507       -15.6875
  67   2.0000      -0.573867       -15.6157
  68   2.0000      -0.563085       -15.3223
  69   2.0000      -0.557060       -15.1584
  70   2.0000      -0.547736       -14.9047
  71   2.0000      -0.533584       -14.5196
  72   2.0000      -0.523108       -14.2345
  73   2.0000      -0.517805       -14.0902
  74   2.0000      -0.514433       -13.9984
  75   2.0000      -0.507660       -13.8141
  76   2.0000      -0.505874       -13.7655
  77   2.0000      -0.500887       -13.6298
  78   2.0000      -0.491387       -13.3713
  79   2.0000      -0.466236       -12.6869
  80   2.0000      -0.450424       -12.2566
  81   2.0000      -0.448327       -12.1996
  82   2.0000      -0.439902       -11.9703
  83   2.0000      -0.436013       -11.8645
  84   2.0000      -0.409370       -11.1395
  85   2.0000      -0.372296       -10.1307
  86   2.0000      -0.329842        -8.9755
  87   2.0000      -0.300802        -8.1852
  88   0.0000       0.059908         1.6302
  89   0.0000       0.091209         2.4819
  90   0.0000       0.125545         3.4162
  91   0.0000       0.145548         3.9606
  92   0.0000       0.162610         4.4248

MULLIKEN ATOMIC CHARGES
-----------------------
   0 C :    0.068603
   1 C :   -0.228153
   2 C :    0.041070
   3 Cl:   -0.140084
   4 C :   -0.018131
   5 C :   -0.015307
   6 C :   -0.050038
   7 C :    0.190174
   8 N :   -0.454754
   9 C :    0.450953
  10 N :   -0.416702
  11 C :    0.213583
  12 C :   -0.156118
  13 C :    0.142567
  14 C :   -0.331558
  15 C :    0.652721
  16 O :   -0.461356
  17 O :   -0.580908
  18 C :    0.265917
  19 C :    0.154593
  20 O :   -0.480011
  21 C :    0.265845
  22 O :   -0.520026
  23 H :    0.051997
  24 H :    0.047831
  25 H :    0.060062
  26 H :    0.040097
  27 H :    0.045383
  28 H :    0.050986
  29 H :    0.217009
  30 H :    0.066824
  31 H :    0.058585
  32 H :    0.078694
  33 H :    0.059781
  34 H :    0.060032
  35 H :    0.035415
  36 H :    0.217830
  37 H :    0.049046
  38 H :    0.025381
  39 H :    0.242169
Sum of atomic charges:    0.0000000

LOEWDIN ATOMIC CHARGES
----------------------
   0 C :   -0.032603
   1 C :   -0.075320
   2 C :   -0.103769
   3 Cl:    0.096785
   4 C :   -0.060139
   5 C :   -0.013373
   6 C :   -0.039193
   7 C :    0.065634
   8 N :   -0.078837
   9 C :    0.162431
  10 N :   -0.176025
  11 C :    0.108237
  12 C :   -0.097013
  13 C :    0.089405
  14 C :   -0.153029
  15 C :    0.251559
  16 O :   -0.270231
  17 O :   -0.178715
  18 C :    0.123946
  19 C :    0.083458
  20 O :   -0.196215
  21 C :    0.108349
  22 O :   -0.221090
  23 H :    0.025897
  24 H :    0.023084
  25 H :    0.025156
  26 H :    0.028670
  27 H :    0.031270
  28 H :    0.029990
  29 H :    0.077363
  30 H :    0.030601
  31 H :    0.034893
  32 H :    0.046893
  33 H :    0.022542
  34 H :    0.024128
  35 H :    0.016018
  36 H :    0.091050
  37 H :    0.021082
  38 H :    0.002216
  39 H :    0.074896

  Mayer bond orders larger than 0.100000
B(  0-C ,  1-C ) :   0.9876 B(  0-C , 23-H ) :   0.9742 B(  0-C , 24-H ) :   0.9753
B(  0-C , 25-H ) :   0.9667 B(  1-C ,  2-C ) :   1.4795 B(  1-C ,  7-C ) :   1.4106
B(  2-C ,  3-Cl) :   0.9582 B(  2-C ,  4-C ) :   1.4136 B(  4-C ,  5-C ) :   1.4089
B(  4-C , 26-H ) :   1.0038 B(  5-C ,  6-C ) :   1.4204 B(  5-C , 27-H ) :   0.9986
B(  6-C ,  7-C ) :   1.4082 B(  6-C , 28-H ) :   0.9958 B(  7-C ,  8-N ) :   1.0180
B(  8-N ,  9-C ) :   1.0964 B(  8-N , 29-H ) :   0.8838 B(  9-C , 10-N ) :   1.4364
B(  9-C , 14-C ) :   1.3202 B( 10-N , 11-C ) :   1.4417 B( 11-C , 12-C ) :   1.3985
B( 11-C , 30-H ) :   0.9980 B( 12-C , 13-C ) :   1.4249 B( 12-C , 31-H ) :   0.9918
B( 13-C , 14-C ) :   1.4402 B( 13-C , 32-H ) :   0.9879 B( 14-C , 15-C ) :   0.9726
B( 15-C , 16-O ) :   1.8812 B( 15-C , 17-O ) :   1.0625 B( 17-O , 18-C ) :   0.7679
B( 18-C , 19-C ) :   1.0014 B( 18-C , 33-H ) :   0.9621 B( 18-C , 34-H ) :   0.9786
B( 19-C , 20-O ) :   0.9044 B( 19-C , 21-C ) :   1.0166 B( 19-C , 35-H ) :   0.9585
B( 20-O , 36-H ) :   0.9554 B( 21-C , 22-O ) :   0.9024 B( 21-C , 37-H ) :   0.9763
B( 21-C , 38-H ) :   0.9719 B( 22-O , 39-H ) :   0.9353

FINAL SINGLE POINT ENERGY     -1482.716214362087

DIPOLE MOMENT
-------------
                                X             Y             Z
Electronic contribution:    -17.88806       2.29192      -6.33897
Nuclear contribution   :     17.58368      -3.26392       7.54433
                        -----------------------------------------
Total Dipole Moment    :     -0.30438      -0.97199       1.20537
                        -----------------------------------------
Magnitude (a.u.)       :      1.57808
Magnitude (Debye)      :      4.01116

Rotational constants in cm-1:     0.010581     0.004593     0.003311
Rotational constants in MHz :   317.197413   137.709155    99.273484

                             ****ORCA TERMINATED NORMALLY****
TOTAL RUN TIME: 0 days 0 hours 0 minutes 24 seconds 931 msec
