                         Program Version 5.0.3 -  RELEASE  -
|  1> !RHF def2-SVP TightSCF PAL16
|  2> *xyz 0 1
|  3> C -1.9049230538990478 -0.43485123595836583 -1.9910451064167916
|  4> C -2.3696414030288473 -1.056667522850406 -0.6768293905366444
|  5> N -2.5512623040232456 -0.137280719864895 0.4603173106392805
|  6> C -3.6530415540934658 0.8066377726636385 0.21925244211322856
|  7> C -4.175800747768203 1.4434916935360471 1.5031750266621953
|  8> C -1.30397678703826 0.559146730864001 0.8575607115425926
|  9> C -0.18870477334573585 -0.4340978692167487 1.2696345626302226
| 10> O -0.36892291581490366 -1.274702060889886 2.152221705938557
| 11> N 0.9914524263628731 -0.30069751152866014 0.5115994806054031
| 12> C 1.6827465852187462 0.9672298386722319 0.4904871949970712
| 13> C 1.4285734307113849 1.9105466839730185 1.5123509552863388
| 14> C 2.059691850248502 3.1574441318220834 1.5441123496837044
| 15> C 2.975601212066735 3.4910247909407617 0.5593510110004981
| 16> C 3.2680059127820265 2.5682862829410094 -0.44062336905144045
| 17> C 2.640905832948346 1.3089784287293307 -0.47310215869931943
| 18> S 3.104455397217708 0.23249302152449033 -1.7944777318896792
| 19> C 2.5812501648051636 -1.3247844265507576 -1.1262969119808395
| 20> C 3.143689747485574 -2.466305320576393 -1.7303147122538765
| 21> C 2.736145635890806 -3.7441314749560584 -1.3657871329036362
| 22> C 1.7495821406780412 -3.8882475065567106 -0.40520579599366857
| 23> C 1.186428206692951 -2.7563814146571195 0.19625661588651858
| 24> C 1.5993742921789353 -1.4465950607485083 -0.1262810346017929
| 25> H -1.833329076273844 -1.2113387416045536 -2.760166866868176
| 26> H -0.9168636466971127 0.024832629206099445 -1.8999116894786048
| 27> H -2.6082923889472975 0.3210181999737325 -2.3526959502591804
| 28> H -3.3168753004663136 -1.581461811606335 -0.8575195585511226
| 29> H -1.6710926445928043 -1.8524200966927353 -0.39644768107006784
| 30> H -4.499576437153339 0.2723958920113787 -0.23065266157473607
| 31> H -3.360223332068219 1.5924822723203063 -0.4874989791233724
| 32> H -4.434082211635553 0.6809484785182248 2.2455184582308028
| 33> H -5.081219811950385 2.0212912234839555 1.2890477504097961
| 34> H -3.4492729462219787 2.129686735320867 1.9476372756156148
| 35> H -1.4824601933518018 1.1742028261373638 1.745884358021096
| 36> H -0.9707831538044427 1.2269209642749288 0.056632808604250705
| 37> H 0.7627945951991976 1.679520416673007 2.3414367777775973
| 38> H 1.8431515492135688 3.8569249043665805 2.3482089108898077
| 39> H 3.474055715897808 4.456785182271455 0.5754515722698932
| 40> H 4.0006857970225695 2.8363130911324714 -1.2001888369297091
| 41> H 3.9002966196469058 -2.3620061279265463 -2.506036972776839
| 42> H 3.1771886677338212 -4.617627770763012 -1.8379477729082399
| 43> H 1.4105041276671757 -4.879178234278754 -0.11223564655661675
| 44> H 0.42376477450612543 -2.9498272841304494 0.9451286816200982
| 45> *
| 46>
| 47>                          ****END OF INPUT****

CARTESIAN COORDINATES (ANGSTROEM)
---------------------------------
  C     -1.904923   -0.434851   -1.991045
  C     -2.369641   -1.056668   -0.676829
  N     -2.551262   -0.137281    0.460317
  C     -3.653042    0.806638    0.219252
  C     -4.175801    1.443492    1.503175
  C     -1.303977    0.559147    0.857561
  C     -0.188705   -0.434098    1.269635
  O     -0.368923   -1.274702    2.152222
  N      0.991452   -0.300698    0.511599
  C      1.682747    0.967230    0.490487
  C      1.428573    1.910547    1.512351
  C      2.059692    3.157444    1.544112
  C      2.975601    3.491025    0.559351
  C      3.268006    2.568286   -0.440623
  C      2.640906    1.308978   -0.473102
  S      3.104455    0.232493   -1.794478
  C      2.581250   -1.324784   -1.126297
  C      3.143690   -2.466305   -1.730315
  C      2.736146   -3.744131   -1.365787
  C      1.749582   -3.888248   -0.405206
  C      1.186428   -2.756381    0.196257
  C      1.599374   -1.446595   -0.126281
  H     -1.833329   -1.211339   -2.760167
  H     -0.916864    0.024833   -1.899912
  H     -2.608292    0.321018   -2.352696
  H     -3.316875   -1.581462   -0.857520
  H     -1.671093   -1.852420   -0.396448
  H     -4.499576    0.272396   -0.230653
  H     -3.360223    1.592482   -0.487499
  H     -4.434082    0.680948    2.245518
  H     -5.081220    2.021291    1.289048
  H     -3.449273    2.129687    1.947637
  H     -1.482460    1.174203    1.745884
  H     -0.970783    1.226921    0.056633
  H      0.762795    1.679520    2.341437
  H      1.843152    3.856925    2.348209
  H      3.474056    4.456785    0.575452
  H      4.000686    2.836313   -1.200189
  H      3.900297   -2.362006   -2.506037
  H      3.177189   -4.617628   -1.837948
  H      1.410504   -4.879178   -0.112236
  H      0.423765   -2.949827    0.945129

 Total Charge           Charge          ....    0
 Multiplicity           Mult            ....    1
 Number of Electrons    NEL             ....  166
 Basis Dimension        Dim             ....  412

ORBITAL ENERGIES
----------------

  NO   OCC          E(Eh)            E(eV)
   0   2.0000     -91.939187     -2501.7925
   1   2.0000     -20.556208      -559.3628
   2   2.0000     -15.617824      -424.9826
   3   2.0000     -15.551411      -423.1754
   4   2.0000     -11.382698      -309.7390
   5   2.0000     -11.316398      -307.9348
   6   2.0000     -11.309815      -307.7557
   7   2.0000     -11.287866      -307.1585
   8   2.0000     -11.282412      -307.0100
   9   2.0000     -11.273941      -306.7795
  10   2.0000     -11.261099      -306.4301
  11   2.0000     -11.260774      -306.4212
  12   2.0000     -11.256256      -306.2983
  13   2.0000     -11.255878      -306.2880
  14   2.0000     -11.253364      -306.2196
  15   2.0000     -11.253211      -306.2155
  16   2.0000     -11.251396      -306.1661
  17   2.0000     -11.244674      -305.9831
  18   2.0000     -11.242905      -305.9350
  19   2.0000     -11.241464      -305.8958
  20   2.0000     -11.220818      -305.3340
  21   2.0000     -11.218749      -305.2777
  22   2.0000      -8.974913      -244.2198
  23   2.0000      -6.662966      -181.3085
  24   2.0000      -6.661363      -181.2649
  25   2.0000      -6.659043      -181.2018
  26   2.0000      -1.386067       -37.7168
  27   2.0000      -1.273124       -34.6435
  28   2.0000      -1.215102       -33.0646
  29   2.0000      -1.162015       -31.6200
  30   2.0000      -1.152552       -31.3625
  31   2.0000      -1.080488       -29.4016
  32   2.0000      -1.034105       -28.1394
  33   2.0000      -1.020254       -27.7625
  34   2.0000      -1.019522       -27.7426
  35   2.0000      -1.012574       -27.5535
  36   2.0000      -0.991049       -26.9678
  37   2.0000      -0.945274       -25.7222
  38   2.0000      -0.926623       -25.2147
  39   2.0000      -0.873346       -23.7649
  40   2.0000      -0.855064       -23.2675
  41   2.0000      -0.843612       -22.9559
  42   2.0000      -0.827421       -22.5153
  43   2.0000      -0.798844       -21.7377
  44   2.0000      -0.775050       -21.0902
  45   2.0000      -0.758060       -20.6279
  46   2.0000      -0.737171       -20.0594
  47   2.0000      -0.698855       -19.0168
  48   2.0000      -0.677148       -18.4261
  49   2.0000      -0.671537       -18.2734
  50   2.0000      -0.664098       -18.0710
  51   2.0000      -0.655867       -17.8471
  52   2.0000      -0.649617       -17.6770
  53   2.0000      -0.647131       -17.6093
  54   2.0000      -0.636800       -17.3282
  55   2.0000      -0.619562       -16.8591
  56   2.0000      -0.611351       -16.6357
  57   2.0000      -0.604255       -16.4426
  58   2.0000      -0.594246       -16.1703
  59   2.0000      -0.588148       -16.0043
  60   2.0000      -0.571932       -15.5631
  61   2.0000      -0.564171       -15.3519
  62   2.0000      -0.555305       -15.1106
  63   2.0000      -0.548830       -14.9344
  64   2.0000      -0.540123       -14.6975
  65   2.0000      -0.536570       -14.6008
  66   2.0000      -0.523564       -14.2469
  67   2.0000      -0.522307       -14.2127
  68   2.0000      -0.514493       -14.0001
  69   2.0000      -0.513894       -13.9838
  70   2.0000      -0.501287       -13.6407
  71   2.0000      -0.494066       -13.4442
  72   2.0000      -0.483136       -13.1468
  73   2.0000      -0.475321       -12.9341
  74   2.0000      -0.471726       -12.8363
  75   2.0000      -0.465509       -12.6672
  76   2.0000      -0.440557       -11.9882
  77   2.0000      -0.432696       -11.7743
  78   2.0000      -0.363537        -9.8923
  79   2.0000      -0.358767        -9.7625
  80   2.0000      -0.352866        -9.6020
  81   2.0000      -0.321720        -8.7544
  82   2.0000      -0.279830        -7.6146
  83   0.0000       0.097145         2.6435
  84   0.0000       0.105807         2.8792
  85   0.0000       0.118962         3.2371
  86   0.0000       0.125496         3.4149
  87   0.0000       0.161675         4.3994

MULLIKEN ATOMIC CHARGES
-----------------------
   0 C :   -0.062421
   1 C :    0.104301
   2 N :   -0.633046
   3 C :    0.111824
   4 C :   -0.025857
   5 C :    0.219533
   6 C :    0.411382
   7 O :   -0.370037
   8 N :   -0.674445
   9 C :    0.265370
  10 C :   -0.103318
  11 C :   -0.015293
  12 C :   -0.036697
  13 C :   -0.005757
  14 C :   -0.145241
  15 S :    0.143253
  16 C :   -0.163264
  17 C :   -0.006026
  18 C :   -0.037338
  19 C :   -0.018911
  20 C :   -0.099044
  21 C :    0.281930
  22 H :    0.036260
  23 H :    0.039449
  24 H :    0.031928
  25 H :    0.035609
  26 H :    0.043828
  27 H :    0.032564
  28 H :    0.011743
  29 H :    0.047396
  30 H :    0.028230
  31 H :    0.023046
  32 H :    0.053811
  33 H :    0.047518
  34 H :    0.059847
  35 H :    0.049237
  36 H :    0.047964
  37 H :    0.049079
  38 H :    0.045755
  39 H :    0.043499
  40 H :    0.046834
  41 H :    0.085510
Sum of atomic charges:   -0.0000000

LOEWDIN ATOMIC CHARGES
----------------------
   0 C :   -0.053321
   1 C :    0.052014
   2 N :   -0.190444
   3 C :    0.059570
   4 C :   -0.039072
   5 C :    0.049459
   6 C :    0.207416
   7 O :   -0.229650
   8 N :   -0.130159
   9 C :    0.047933
  10 C :   -0.042352
  11 C :   -0.017089
  12 C :   -0.029257
  13 C :   -0.026197
  14 C :   -0.168328
  15 S :    0.321725
  16 C :   -0.172493
  17 C :   -0.031798
  18 C :   -0.033533
  19 C :   -0.017038
  20 C :   -0.035360
  21 C :    0.053255
  22 H :    0.022521
  23 H :    0.014947
  24 H :    0.014126
  25 H :    0.014602
  26 H :    0.011132
  27 H :    0.015585
  28 H :   -0.008031
  29 H :    0.023730
  30 H :    0.018285
  31 H :    0.010221
  32 H :    0.026984
  33 H :    0.004612
  34 H :    0.032665
  35 H :    0.032258
  36 H :    0.030912
  37 H :    0.031833
  38 H :    0.029887
  39 H :    0.028800
  40 H :    0.031291
  41 H :    0.038362

  Mayer bond orders larger than 0.100000
B(  0-C ,  1-C ) :   1.0241 B(  0-C , 22-H ) :   0.9833 B(  0-C , 23-H ) :   0.9785
B(  0-C , 24-H ) :   0.9822 B(  1-C ,  2-N ) :   0.9406 B(  1-C , 25-H ) :   0.9827
B(  1-C , 26-H ) :   0.9801 B(  2-N ,  3-C ) :   0.9296 B(  2-N ,  5-C ) :   0.9586
B(  3-C ,  4-C ) :   1.0558 B(  3-C , 27-H ) :   0.9788 B(  3-C , 28-H ) :   0.9681
B(  4-C , 29-H ) :   0.9815 B(  4-C , 30-H ) :   0.9851 B(  4-C , 31-H ) :   0.9824
B(  5-C ,  6-C ) :   0.9592 B(  5-C , 32-H ) :   0.9582 B(  5-C , 33-H ) :   0.9784
B(  6-C ,  7-O ) :   2.0349 B(  6-C ,  8-N ) :   0.9328 B(  8-N ,  9-C ) :   0.9063
B(  8-N , 21-C ) :   0.8866 B(  9-C , 10-C ) :   1.4141 B(  9-C , 14-C ) :   1.4555
B( 10-C , 11-C ) :   1.4318 B( 10-C , 34-H ) :   0.9908 B( 11-C , 12-C ) :   1.4007
B( 11-C , 35-H ) :   0.9970 B( 12-C , 13-C ) :   1.4479 B( 12-C , 36-H ) :   1.0006
B( 13-C , 14-C ) :   1.4132 B( 13-C , 37-H ) :   0.9963 B( 14-C , 15-S ) :   0.9610
B( 15-S , 16-C ) :   0.9612 B( 16-C , 17-C ) :   1.4141 B( 16-C , 21-C ) :   1.4402
B( 17-C , 18-C ) :   1.4458 B( 17-C , 38-H ) :   0.9968 B( 18-C , 19-C ) :   1.3968
B( 18-C , 39-H ) :   1.0010 B( 19-C , 20-C ) :   1.4273 B( 19-C , 40-H ) :   1.0001
B( 20-C , 21-C ) :   1.4316 B( 20-C , 41-H ) :   0.9867

FINAL SINGLE POINT ENERGY     -1273.749977590793

DIPOLE MOMENT
-------------
                                X             Y             Z
Electronic contribution:     26.91767      -3.69457      -0.43237
Nuclear contribution   :    -26.96003       4.55780      -0.21529
                        -----------------------------------------
Total Dipole Moment    :     -0.04237       0.86324      -0.64766
                        -----------------------------------------
Magnitude (a.u.)       :      1.08002
Magnitude (Debye)      :      2.74518

Rotational constants in cm-1:     0.010699     0.007726     0.005450
Rotational constants in MHz :   320.747792   231.624803   163.398217

                             ****ORCA TERMINATED NORMALLY****
TOTAL RUN TIME: 0 days 0 hours 0 minutes 30 seconds 402 msec
