                         Program Version 5.0.3 -  RELEASE  -
|  1> !RHF def2-SVP TightSCF PAL16
|  2> *xyz 0 1
|  3> C -1.0100633565534713 -0.48690718986062026 -1.7305361502547096
|  4> C -1.6948991763445218 -0.0474284125273071 -0.4253014304334065
|  5> C -2.5523838559544267 1.1968594034125606 -0.7295141841586261
|  6> C -2.6174427901519977 -1.160306250611528 0.09794570950337926
|  7> N -0.6941054103783075 0.3725501756854724 0.5781132228214291
|  8> C 0.13800221510225702 -0.7214433140986037 1.1329570905301405
|  9> C 1.5185595098591944 -0.1971973515281369 1.5962366748391608
| 10> O 1.3624370073571193 1.086256729800668 2.212000266258858
| 11> C 2.4666370205157633 -0.04422183669774484 0.46208727434987484
| 12> C 2.953305504083346 1.0182138179487732 -0.26523525823597793
| 13> C 3.8045767244949142 0.4185524063110816 -1.2027303329744494
| 14> Br 4.766623270462956 1.3811458876144709 -2.4955229277899207
| 15> N 3.854474034431003 -0.907531307896249 -1.0796408901166494
| 16> O 3.0089384266327572 -1.2004233504116986 -0.019681208834210945
| 17> H -0.4409767138844619 -1.4142746819937533 -1.6116371208292348
| 18> H -0.3212863339707665 0.283483420054146 -2.0968804711088755
| 19> H -1.7510597683670988 -0.6652679461728792 -2.51868865384187
| 20> H -3.3121810185545493 0.9770200102086084 -1.4886001740886012
| 21> H -3.0765751749986485 1.5527281159888098 0.16552739555556217
| 22> H -1.9388260247483187 2.0232842196428904 -1.107978591961602
| 23> H -3.0954553195092815 -0.8699844348592329 1.0406934078387182
| 24> H -2.0752789516031327 -2.096207556905897 0.27038837247653313
| 25> H -3.4150676795515444 -1.3773678934090683 -0.6220766500095102
| 26> H -1.1937446524671051 0.8010808710824208 1.3626087283543293
| 27> H 0.2802051363559184 -1.5512048857236551 0.4334508887112494
| 28> H -0.392094077453641 -1.1231070644817267 2.0055168750875687
| 29> H 1.9439293859721798 -0.876271052908549 2.3429488353954637
| 30> H 0.7647782203888306 1.5654956385745398 1.604606049682015
| 31> H 2.718973848835768 2.0624738337612847 -0.12888507103392127
| 32> *
| 33>
| 34>                          ****END OF INPUT****

CARTESIAN COORDINATES (ANGSTROEM)
---------------------------------
  C     -1.010063   -0.486907   -1.730536
  C     -1.694899   -0.047428   -0.425301
  C     -2.552384    1.196859   -0.729514
  C     -2.617443   -1.160306    0.097946
  N     -0.694105    0.372550    0.578113
  C      0.138002   -0.721443    1.132957
  C      1.518560   -0.197197    1.596237
  O      1.362437    1.086257    2.212000
  C      2.466637   -0.044222    0.462087
  C      2.953306    1.018214   -0.265235
  C      3.804577    0.418552   -1.202730
  Br     4.766623    1.381146   -2.495523
  N      3.854474   -0.907531   -1.079641
  O      3.008938   -1.200423   -0.019681
  H     -0.440977   -1.414275   -1.611637
  H     -0.321286    0.283483   -2.096880
  H     -1.751060   -0.665268   -2.518689
  H     -3.312181    0.977020   -1.488600
  H     -3.076575    1.552728    0.165527
  H     -1.938826    2.023284   -1.107979
  H     -3.095455   -0.869984    1.040693
  H     -2.075279   -2.096208    0.270388
  H     -3.415068   -1.377368   -0.622077
  H     -1.193745    0.801081    1.362609
  H      0.280205   -1.551205    0.433451
  H     -0.392094   -1.123107    2.005517
  H      1.943929   -0.876271    2.342949
  H      0.764778    1.565496    1.604606
  H      2.718974    2.062474   -0.128885

 Total Charge           Charge          ....    0
 Multiplicity           Mult            ....    1
 Number of Electrons    NEL             ....  134
 Basis Dimension        Dim             ....  289

ORBITAL ENERGIES
----------------

  NO   OCC          E(Eh)            E(eV)
   0   2.0000    -489.993922    -13333.4125
   1   2.0000     -65.162383     -1773.1586
   2   2.0000     -58.534494     -1592.8046
   3   2.0000     -58.532761     -1592.7574
   4   2.0000     -58.532712     -1592.7561
   5   2.0000     -20.653941      -562.0223
   6   2.0000     -20.564734      -559.5949
   7   2.0000     -15.631679      -425.3596
   8   2.0000     -15.567588      -423.6156
   9   2.0000     -11.340245      -308.5838
  10   2.0000     -11.332013      -308.3597
  11   2.0000     -11.315278      -307.9044
  12   2.0000     -11.279984      -306.9440
  13   2.0000     -11.279490      -306.9305
  14   2.0000     -11.254901      -306.2614
  15   2.0000     -11.232980      -305.6649
  16   2.0000     -11.232086      -305.6406
  17   2.0000     -11.228977      -305.5560
  18   2.0000      -9.854129      -268.1445
  19   2.0000      -7.471378      -203.3065
  20   2.0000      -7.461435      -203.0360
  21   2.0000      -7.461259      -203.0312
  22   2.0000      -3.214262       -87.4645
  23   2.0000      -3.209761       -87.3420
  24   2.0000      -3.209434       -87.3332
  25   2.0000      -3.198640       -87.0394
  26   2.0000      -3.198640       -87.0394
  27   2.0000      -1.492395       -40.6101
  28   2.0000      -1.359805       -37.0022
  29   2.0000      -1.218465       -33.1561
  30   2.0000      -1.177209       -32.0335
  31   2.0000      -1.094839       -29.7921
  32   2.0000      -1.061093       -28.8738
  33   2.0000      -1.031446       -28.0671
  34   2.0000      -0.989228       -26.9183
  35   2.0000      -0.938628       -25.5414
  36   2.0000      -0.935649       -25.4603
  37   2.0000      -0.875320       -23.8187
  38   2.0000      -0.814386       -22.1606
  39   2.0000      -0.785505       -21.3747
  40   2.0000      -0.762353       -20.7447
  41   2.0000      -0.731743       -19.9118
  42   2.0000      -0.691127       -18.8065
  43   2.0000      -0.676734       -18.4149
  44   2.0000      -0.665073       -18.0975
  45   2.0000      -0.652442       -17.7539
  46   2.0000      -0.631662       -17.1884
  47   2.0000      -0.613143       -16.6845
  48   2.0000      -0.608469       -16.5573
  49   2.0000      -0.597662       -16.2632
  50   2.0000      -0.583298       -15.8724
  51   2.0000      -0.574142       -15.6232
  52   2.0000      -0.556050       -15.1309
  53   2.0000      -0.546712       -14.8768
  54   2.0000      -0.537641       -14.6300
  55   2.0000      -0.528655       -14.3854
  56   2.0000      -0.525896       -14.3104
  57   2.0000      -0.503593       -13.7035
  58   2.0000      -0.498504       -13.5650
  59   2.0000      -0.493507       -13.4290
  60   2.0000      -0.490405       -13.3446
  61   2.0000      -0.474480       -12.9113
  62   2.0000      -0.468703       -12.7540
  63   2.0000      -0.430584       -11.7168
  64   2.0000      -0.396945       -10.8014
  65   2.0000      -0.394035       -10.7222
  66   2.0000      -0.366395        -9.9701
  67   0.0000       0.108967         2.9651
  68   0.0000       0.150422         4.0932
  69   0.0000       0.161824         4.4035
  70   0.0000       0.184495         5.0204
  71   0.0000       0.192816         5.2468

MULLIKEN ATOMIC CHARGES
-----------------------
   0 C :    0.056789
   1 C :   -0.264422
   2 C :    0.048815
   3 C :    0.049537
   4 N :   -0.505947
   5 C :    0.138184
   6 C :    0.357030
   7 O :   -0.483459
   8 C :    0.241719
   9 C :   -0.152203
  10 C :    0.084864
  11 Br:    0.012476
  12 N :   -0.061585
  13 O :   -0.405130
  14 H :    0.031911
  15 H :    0.044435
  16 H :    0.031725
  17 H :    0.032522
  18 H :    0.021984
  19 H :    0.040356
  20 H :    0.023856
  21 H :    0.032076
  22 H :    0.034729
  23 H :    0.141023
  24 H :    0.067161
  25 H :    0.040643
  26 H :    0.064470
  27 H :    0.207455
  28 H :    0.068988
Sum of atomic charges:    0.0000000

LOEWDIN ATOMIC CHARGES
----------------------
   0 C :   -0.023648
   1 C :    0.004225
   2 C :   -0.023583
   3 C :   -0.033825
   4 N :   -0.161673
   5 C :    0.061048
   6 C :    0.104772
   7 O :   -0.188759
   8 C :    0.117135
   9 C :   -0.127941
  10 C :   -0.095435
  11 Br:    0.131177
  12 N :   -0.077821
  13 O :   -0.082744
  14 H :    0.014520
  15 H :    0.022112
  16 H :    0.020316
  17 H :    0.018522
  18 H :    0.011164
  19 H :    0.019335
  20 H :    0.013420
  21 H :    0.014832
  22 H :    0.020550
  23 H :    0.056955
  24 H :    0.022468
  25 H :    0.009628
  26 H :    0.035852
  27 H :    0.076533
  28 H :    0.040865

  Mayer bond orders larger than 0.100000
B(  0-C ,  1-C ) :   1.0039 B(  0-C , 14-H ) :   0.9814 B(  0-C , 15-H ) :   0.9811
B(  0-C , 16-H ) :   0.9823 B(  1-C ,  2-C ) :   1.0186 B(  1-C ,  3-C ) :   0.9903
B(  1-C ,  4-N ) :   0.9090 B(  2-C , 17-H ) :   0.9849 B(  2-C , 18-H ) :   0.9816
B(  2-C , 19-H ) :   0.9839 B(  3-C , 20-H ) :   0.9807 B(  3-C , 21-H ) :   0.9803
B(  3-C , 22-H ) :   0.9810 B(  4-N ,  5-C ) :   0.9259 B(  4-N , 23-H ) :   0.9402
B(  5-C ,  6-C ) :   1.0387 B(  5-C , 24-H ) :   0.9710 B(  5-C , 25-H ) :   0.9778
B(  6-C ,  7-O ) :   0.9003 B(  6-C ,  8-C ) :   0.9268 B(  6-C , 26-H ) :   0.9539
B(  7-O , 27-H ) :   0.9524 B(  8-C ,  9-C ) :   1.6611 B(  8-C , 13-O ) :   1.0247
B(  9-C , 10-C ) :   1.1876 B(  9-C , 28-H ) :   0.9936 B( 10-C , 11-Br) :   1.0201
B( 10-C , 12-N ) :   1.6793 B( 12-N , 13-O ) :   0.9215

FINAL SINGLE POINT ENERGY     -3179.715519879275

DIPOLE MOMENT
-------------
                                X             Y             Z
Electronic contribution:     66.22990      15.71178     -25.98460
Nuclear contribution   :    -67.99793     -15.32844      26.25813
                        -----------------------------------------
Total Dipole Moment    :     -1.76802       0.38334       0.27353
                        -----------------------------------------
Magnitude (a.u.)       :      1.82967
Magnitude (Debye)      :      4.65064

Rotational constants in cm-1:     0.028768     0.007303     0.006643
Rotational constants in MHz :   862.444783   218.932274   199.145022

                             ****ORCA TERMINATED NORMALLY****
TOTAL RUN TIME: 0 days 0 hours 0 minutes 11 seconds 514 msec
