                         Program Version 5.0.3 -  RELEASE  -
|  1> !RHF def2-SVP TightSCF PAL16
|  2> *xyz 0 1
|  3> C -0.280927025848401 -2.8699584374266878 -0.05280762485918353
|  4> C -0.252049895350288 -1.324899022811591 -0.09774507894332769
|  5> C 1.1268365887514529 -0.8852087948021118 0.32261783481892703
|  6> N 2.0724284646399487 -0.2930494136737733 -0.37050171485357564
|  7> C 3.089476226275616 -0.15859898711537335 0.5527363228778355
|  8> C 4.367389857496188 0.4622523204504073 0.21915069098983336
|  9> C 5.383746121377645 0.5906794333401939 1.1781586472381922
| 10> C 6.603551381130745 1.187484740642368 0.8473713029519414
| 11> C 6.8209231119313 1.6621030139019337 -0.4445690100983903
| 12> C 5.821046901733224 1.5413241724245912 -1.4073501859031194
| 13> C 4.601126232822685 0.9447962121005804 -1.0775464722099288
| 14> N 2.7832757914510395 -0.6477337181756707 1.7662565771177776
| 15> O 1.4888114689426064 -1.1325936375027736 1.6155307924189755
| 16> C -0.5357304771454777 -0.8418645223300941 -1.5359223527448311
| 17> C -1.9831009116014071 -1.0699057599873654 -1.98269398639224
| 18> C -2.9817493559555786 -1.1712721517598703 -0.8278003576596511
| 19> N -2.6407037574713637 -0.35205067539055274 0.3357335128943014
| 20> C -2.7740076897858907 1.0958981475218097 0.10554918645518972
| 21> C -4.208209757935747 1.5624303918270128 -0.17756525334201895
| 22> C -5.185143611446581 1.166308703061017 0.9302870269390335
| 23> C -6.524013873967027 1.70727407126404 0.6613131315793874
| 24> N -7.579474980310191 2.1382085782181117 0.4446621266686676
| 25> C -1.3023552104544123 -0.6976798190482757 0.8757666421820216
| 26> H -1.233447025877693 -3.2921702253168266 -0.37925515262730947
| 27> H 0.49816358486907736 -3.2938429051747016 -0.6986302715281569
| 28> H -0.09252538966754771 -3.24178022160105 0.961608048331724
| 29> H 5.235544206390484 0.22672956001993574 2.1931228088480474
| 30> H 7.382833624979452 1.2807004280683234 1.599662609758467
| 31> H 7.770053777025082 2.125977817630589 -0.7010784460548439
| 32> H 5.9889177212670255 1.910632759606664 -2.415874785637311
| 33> H 3.83164563271255 0.8585019230313718 -1.8425096713158666
| 34> H -0.3234378981248016 0.23423166486676905 -1.606504478673987
| 35> H 0.14522433965028256 -1.3164879448369422 -2.254939016072066
| 36> H -2.040319602023993 -1.9915121730913419 -2.574794733260945
| 37> H -2.2733071952642705 -0.2545475072236641 -2.6568332321692028
| 38> H -3.061154806540473 -2.213655383092683 -0.4981668000367045
| 39> H -3.9887406105864507 -0.946425388313874 -1.1965201301077844
| 40> H -2.1219014366058926 1.4346386799474042 -0.7073383478707066
| 41> H -2.446383150021624 1.6317997692514195 1.00636927680085
| 42> H -4.5555068482007615 1.1817258509451176 -1.1456198635132577
| 43> H -4.196520212215959 2.656285787059238 -0.27708478767511646
| 44> H -4.827393628379049 1.543263999106937 1.8953588129323342
| 45> H -5.251520136499241 0.07595271549827569 1.012930456209924
| 46> H -0.875667408895776 0.18253331514329366 1.3767623926215797
| 47> H -1.4757031372772538 -1.4064973662533509 1.697346601571304
| 48> *
| 49>
| 50>                          ****END OF INPUT****

CARTESIAN COORDINATES (ANGSTROEM)
---------------------------------
  C     -0.280927   -2.869958   -0.052808
  C     -0.252050   -1.324899   -0.097745
  C      1.126837   -0.885209    0.322618
  N      2.072428   -0.293049   -0.370502
  C      3.089476   -0.158599    0.552736
  C      4.367390    0.462252    0.219151
  C      5.383746    0.590679    1.178159
  C      6.603551    1.187485    0.847371
  C      6.820923    1.662103   -0.444569
  C      5.821047    1.541324   -1.407350
  C      4.601126    0.944796   -1.077546
  N      2.783276   -0.647734    1.766257
  O      1.488811   -1.132594    1.615531
  C     -0.535730   -0.841865   -1.535922
  C     -1.983101   -1.069906   -1.982694
  C     -2.981749   -1.171272   -0.827800
  N     -2.640704   -0.352051    0.335734
  C     -2.774008    1.095898    0.105549
  C     -4.208210    1.562430   -0.177565
  C     -5.185144    1.166309    0.930287
  C     -6.524014    1.707274    0.661313
  N     -7.579475    2.138209    0.444662
  C     -1.302355   -0.697680    0.875767
  H     -1.233447   -3.292170   -0.379255
  H      0.498164   -3.293843   -0.698630
  H     -0.092525   -3.241780    0.961608
  H      5.235544    0.226730    2.193123
  H      7.382834    1.280700    1.599663
  H      7.770054    2.125978   -0.701078
  H      5.988918    1.910633   -2.415875
  H      3.831646    0.858502   -1.842510
  H     -0.323438    0.234232   -1.606504
  H      0.145224   -1.316488   -2.254939
  H     -2.040320   -1.991512   -2.574795
  H     -2.273307   -0.254548   -2.656833
  H     -3.061155   -2.213655   -0.498167
  H     -3.988741   -0.946425   -1.196520
  H     -2.121901    1.434639   -0.707338
  H     -2.446383    1.631800    1.006369
  H     -4.555507    1.181726   -1.145620
  H     -4.196520    2.656286   -0.277085
  H     -4.827394    1.543264    1.895359
  H     -5.251520    0.075953    1.012930
  H     -0.875667    0.182533    1.376762
  H     -1.475703   -1.406497    1.697347

 Total Charge           Charge          ....    0
 Multiplicity           Mult            ....    1
 Number of Electrons    NEL             ....  166
 Basis Dimension        Dim             ....  432

ORBITAL ENERGIES
----------------

  NO   OCC          E(Eh)            E(eV)
   0   2.0000     -20.657992      -562.1325
   1   2.0000     -15.625464      -425.1905
   2   2.0000     -15.583603      -424.0514
   3   2.0000     -15.568667      -423.6450
   4   2.0000     -15.565975      -423.5717
   5   2.0000     -11.373541      -309.4898
   6   2.0000     -11.329659      -308.2957
   7   2.0000     -11.281890      -306.9958
   8   2.0000     -11.280797      -306.9661
   9   2.0000     -11.277632      -306.8800
  10   2.0000     -11.276895      -306.8599
  11   2.0000     -11.275117      -306.8115
  12   2.0000     -11.268844      -306.6408
  13   2.0000     -11.262298      -306.4627
  14   2.0000     -11.256350      -306.3009
  15   2.0000     -11.255609      -306.2807
  16   2.0000     -11.255428      -306.2758
  17   2.0000     -11.253871      -306.2334
  18   2.0000     -11.248859      -306.0970
  19   2.0000     -11.248724      -306.0934
  20   2.0000     -11.247299      -306.0546
  21   2.0000     -11.244827      -305.9873
  22   2.0000     -11.239002      -305.8288
  23   2.0000      -1.507121       -41.0109
  24   2.0000      -1.251557       -34.0566
  25   2.0000      -1.239841       -33.7378
  26   2.0000      -1.201061       -32.6825
  27   2.0000      -1.173297       -31.9270
  28   2.0000      -1.146878       -31.2081
  29   2.0000      -1.101746       -29.9800
  30   2.0000      -1.076243       -29.2861
  31   2.0000      -1.042283       -28.3620
  32   2.0000      -1.027852       -27.9693
  33   2.0000      -1.015261       -27.6267
  34   2.0000      -0.973752       -26.4971
  35   2.0000      -0.952117       -25.9084
  36   2.0000      -0.893279       -24.3074
  37   2.0000      -0.890793       -24.2397
  38   2.0000      -0.874323       -23.7915
  39   2.0000      -0.846391       -23.0315
  40   2.0000      -0.826357       -22.4863
  41   2.0000      -0.804619       -21.8948
  42   2.0000      -0.787958       -21.4414
  43   2.0000      -0.747618       -20.3437
  44   2.0000      -0.723778       -19.6950
  45   2.0000      -0.708696       -19.2846
  46   2.0000      -0.700281       -19.0556
  47   2.0000      -0.691608       -18.8196
  48   2.0000      -0.679764       -18.4973
  49   2.0000      -0.667767       -18.1709
  50   2.0000      -0.655704       -17.8426
  51   2.0000      -0.647643       -17.6233
  52   2.0000      -0.640678       -17.4337
  53   2.0000      -0.632401       -17.2085
  54   2.0000      -0.612243       -16.6600
  55   2.0000      -0.605704       -16.4820
  56   2.0000      -0.598678       -16.2909
  57   2.0000      -0.597616       -16.2620
  58   2.0000      -0.587581       -15.9889
  59   2.0000      -0.577001       -15.7010
  60   2.0000      -0.570510       -15.5244
  61   2.0000      -0.558757       -15.2045
  62   2.0000      -0.548520       -14.9260
  63   2.0000      -0.543595       -14.7920
  64   2.0000      -0.538688       -14.6584
  65   2.0000      -0.531619       -14.4661
  66   2.0000      -0.531156       -14.4535
  67   2.0000      -0.523714       -14.2510
  68   2.0000      -0.516120       -14.0443
  69   2.0000      -0.511156       -13.9093
  70   2.0000      -0.509865       -13.8741
  71   2.0000      -0.501364       -13.6428
  72   2.0000      -0.492102       -13.3908
  73   2.0000      -0.479656       -13.0521
  74   2.0000      -0.475368       -12.9354
  75   2.0000      -0.467205       -12.7133
  76   2.0000      -0.462206       -12.5773
  77   2.0000      -0.454500       -12.3676
  78   2.0000      -0.453091       -12.3292
  79   2.0000      -0.411943       -11.2095
  80   2.0000      -0.365524        -9.9464
  81   2.0000      -0.348145        -9.4735
  82   2.0000      -0.335278        -9.1234
  83   0.0000       0.074533         2.0281
  84   0.0000       0.120118         3.2686
  85   0.0000       0.141376         3.8470
  86   0.0000       0.146421         3.9843
  87   0.0000       0.171525         4.6674

MULLIKEN ATOMIC CHARGES
-----------------------
   0 C :    0.069785
   1 C :   -0.616076
   2 C :    0.546521
   3 N :   -0.403318
   4 C :    0.289971
   5 C :   -0.179359
   6 C :    0.021421
   7 C :   -0.047079
   8 C :   -0.015259
   9 C :   -0.043675
  10 C :    0.015807
  11 N :   -0.086317
  12 O :   -0.404992
  13 C :    0.088065
  14 C :   -0.049085
  15 C :    0.169976
  16 N :   -0.667308
  17 C :    0.181617
  18 C :   -0.101218
  19 C :    0.057198
  20 C :   -0.132753
  21 N :   -0.137109
  22 C :    0.348507
  23 H :    0.045206
  24 H :    0.044446
  25 H :    0.060324
  26 H :    0.065875
  27 H :    0.047274
  28 H :    0.048139
  29 H :    0.045751
  30 H :    0.062939
  31 H :    0.046046
  32 H :    0.050612
  33 H :    0.037809
  34 H :    0.037310
  35 H :    0.031916
  36 H :    0.039111
  37 H :    0.025683
  38 H :    0.032808
  39 H :    0.051875
  40 H :    0.057731
  41 H :    0.078610
  42 H :    0.094982
  43 H :    0.044888
  44 H :    0.045343
Sum of atomic charges:   -0.0000000

LOEWDIN ATOMIC CHARGES
----------------------
   0 C :   -0.011063
   1 C :   -0.081067
   2 C :    0.185189
   3 N :   -0.204141
   4 C :    0.068764
   5 C :   -0.069888
   6 C :    0.017831
   7 C :   -0.029790
   8 C :   -0.004538
   9 C :   -0.031321
  10 C :    0.012507
  11 N :   -0.100977
  12 O :   -0.090315
  13 C :   -0.002083
  14 C :   -0.033706
  15 C :    0.053650
  16 N :   -0.198485
  17 C :    0.063179
  18 C :   -0.014316
  19 C :   -0.025389
  20 C :   -0.003522
  21 N :   -0.120944
  22 C :    0.088960
  23 H :    0.020508
  24 H :    0.023123
  25 H :    0.025762
  26 H :    0.038283
  27 H :    0.030023
  28 H :    0.029639
  29 H :    0.029346
  30 H :    0.036041
  31 H :    0.018145
  32 H :    0.024437
  33 H :    0.018487
  34 H :    0.017472
  35 H :    0.010298
  36 H :    0.014256
  37 H :   -0.001508
  38 H :    0.013646
  39 H :    0.019228
  40 H :    0.028567
  41 H :    0.047771
  42 H :    0.050399
  43 H :    0.019832
  44 H :    0.017710

  Mayer bond orders larger than 0.100000
B(  0-C ,  1-C ) :   0.9831 B(  0-C , 23-H ) :   0.9896 B(  0-C , 24-H ) :   0.9819
B(  0-C , 25-H ) :   0.9798 B(  1-C ,  2-C ) :   0.9288 B(  1-C , 13-C ) :   0.9905
B(  1-C , 22-C ) :   0.9340 B(  2-C ,  3-N ) :   1.7003 B(  2-C , 12-O ) :   1.0714
B(  3-N ,  4-C ) :   1.2436 B(  4-C ,  5-C ) :   1.0597 B(  4-C , 11-N ) :   1.7341
B(  5-C ,  6-C ) :   1.3915 B(  5-C , 10-C ) :   1.4054 B(  6-C ,  7-C ) :   1.4372
B(  6-C , 26-H ) :   0.9973 B(  7-C ,  8-C ) :   1.4001 B(  7-C , 27-H ) :   0.9998
B(  8-C ,  9-C ) :   1.4112 B(  8-C , 28-H ) :   0.9988 B(  9-C , 10-C ) :   1.4213
B(  9-C , 29-H ) :   1.0003 B( 10-C , 30-H ) :   0.9965 B( 11-N , 12-O ) :   0.8853
B( 13-C , 14-C ) :   1.0279 B( 13-C , 31-H ) :   0.9689 B( 13-C , 32-H ) :   0.9716
B( 14-C , 15-C ) :   1.0214 B( 14-C , 33-H ) :   0.9712 B( 14-C , 34-H ) :   0.9764
B( 15-C , 16-N ) :   0.9390 B( 15-C , 35-H ) :   0.9777 B( 15-C , 36-H ) :   0.9841
B( 16-N , 17-C ) :   0.9262 B( 16-N , 22-C ) :   0.9419 B( 17-C , 18-C ) :   1.0680
B( 17-C , 37-H ) :   0.9752 B( 17-C , 38-H ) :   0.9716 B( 18-C , 19-C ) :   1.0201
B( 18-C , 39-H ) :   0.9665 B( 18-C , 40-H ) :   0.9718 B( 19-C , 20-C ) :   0.9478
B( 19-C , 41-H ) :   0.9597 B( 19-C , 42-H ) :   0.9546 B( 20-C , 21-N ) :   3.0971
B( 22-C , 43-H ) :   0.9788 B( 22-C , 44-H ) :   0.9781

FINAL SINGLE POINT ENERGY      -986.291696248846

DIPOLE MOMENT
-------------
                                X             Y             Z
Electronic contribution:     14.49331       3.72579       7.63778
Nuclear contribution   :    -12.91023      -4.19183      -8.46916
                        -----------------------------------------
Total Dipole Moment    :      1.58309      -0.46604      -0.83139
                        -----------------------------------------
Magnitude (a.u.)       :      1.84785
Magnitude (Debye)      :      4.69687

Rotational constants in cm-1:     0.019762     0.003058     0.002947
Rotational constants in MHz :   592.435139    91.676017    88.360684

                             ****ORCA TERMINATED NORMALLY****
TOTAL RUN TIME: 0 days 0 hours 0 minutes 28 seconds 929 msec
