                         Program Version 5.0.3 -  RELEASE  -
|  1> !RHF def2-SVP TightSCF PAL16
|  2> *xyz 0 1
|  3> C 5.208795580266502 -0.6056415842784791 0.4785909303538282
|  4> O 4.03096341822755 -0.7841855945599672 1.2575212213391627
|  5> C 2.8706465233896115 -0.2697526765090677 0.7470483714566554
|  6> C 2.7393251204459417 0.4162775594115826 -0.45867431527184743
|  7> C 1.4870637386564054 0.8893084857946427 -0.8550712344971813
|  8> O 1.4516005844845685 1.5865989293276166 -2.0366196201084557
|  9> C 0.3423607635093112 0.6600988129570983 -0.07628187070161631
| 10> C -0.9632305246426062 1.15751830812984 -0.5744275265539646
| 11> O -0.9699558246158323 2.2081057035401064 -1.220074946152516
| 12> C -2.232429131269054 0.41024364835506494 -0.4026908895005534
| 13> C -2.27432210593277 -0.988319167666688 -0.45213556927881793
| 14> C -3.4959611200763696 -1.6530630604587468 -0.32444539966996705
| 15> C -4.6750611061722775 -0.9251457718429212 -0.16174688415877567
| 16> C -4.638772802024631 0.4688507843832956 -0.13337272555289867
| 17> C -3.4203088486967514 1.1373943255774859 -0.26078061055261276
| 18> C 0.49104496298126343 0.004630714395496938 1.1501135947350205
| 19> O -0.5786035612082462 -0.15738054140566007 1.9857031552626316
| 20> C 1.7443095847968688 -0.46524560106881196 1.5531360485456447
| 21> H 6.038894416433843 -1.073057496360588 1.016981744644995
| 22> H 5.445270218304754 0.45684246110887217 0.3593152580782602
| 23> H 5.1190217699499065 -1.103616733340076 -0.4925071923201371
| 24> H 3.586077719547554 0.611263931256885 -1.1081531604436403
| 25> H 0.5893124941611775 2.0616119366920316 -2.0727632853446094
| 26> H -1.369078064220453 -1.5708548952591666 -0.5971877436185749
| 27> H -3.5292605598961333 -2.7391342249217314 -0.35818316795275984
| 28> H -5.625219951538573 -1.4447964114553455 -0.06513498101160729
| 29> H -5.558845089121074 1.035987946488043 -0.017556640680462747
| 30> H -3.3971152277272445 2.224929993070582 -0.24918750360015787
| 31> H -0.2845195197726034 -0.5659960770581947 2.8176783823091394
| 32> H 1.867996541759875 -0.9834737043032478 2.5004254801213683
| 33> *
| 34>
| 35>                          ****END OF INPUT****

CARTESIAN COORDINATES (ANGSTROEM)
---------------------------------
  C      5.208796   -0.605642    0.478591
  O      4.030963   -0.784186    1.257521
  C      2.870647   -0.269753    0.747048
  C      2.739325    0.416278   -0.458674
  C      1.487064    0.889308   -0.855071
  O      1.451601    1.586599   -2.036620
  C      0.342361    0.660099   -0.076282
  C     -0.963231    1.157518   -0.574428
  O     -0.969956    2.208106   -1.220075
  C     -2.232429    0.410244   -0.402691
  C     -2.274322   -0.988319   -0.452136
  C     -3.495961   -1.653063   -0.324445
  C     -4.675061   -0.925146   -0.161747
  C     -4.638773    0.468851   -0.133373
  C     -3.420309    1.137394   -0.260781
  C      0.491045    0.004631    1.150114
  O     -0.578604   -0.157381    1.985703
  C      1.744310   -0.465246    1.553136
  H      6.038894   -1.073057    1.016982
  H      5.445270    0.456842    0.359315
  H      5.119022   -1.103617   -0.492507
  H      3.586078    0.611264   -1.108153
  H      0.589312    2.061612   -2.072763
  H     -1.369078   -1.570855   -0.597188
  H     -3.529261   -2.739134   -0.358183
  H     -5.625220   -1.444796   -0.065135
  H     -5.558845    1.035988   -0.017557
  H     -3.397115    2.224930   -0.249188
  H     -0.284520   -0.565996    2.817678
  H      1.867997   -0.983474    2.500425

 Total Charge           Charge          ....    0
 Multiplicity           Mult            ....    1
 Number of Electrons    NEL             ....  128
 Basis Dimension        Dim             ....  312

ORBITAL ENERGIES
----------------

  NO   OCC          E(Eh)            E(eV)
   0   2.0000     -20.601403      -560.5927
   1   2.0000     -20.595258      -560.4255
   2   2.0000     -20.572165      -559.7971
   3   2.0000     -20.546043      -559.0863
   4   2.0000     -11.350984      -308.8760
   5   2.0000     -11.336190      -308.4734
   6   2.0000     -11.331128      -308.3357
   7   2.0000     -11.330421      -308.3164
   8   2.0000     -11.301427      -307.5275
   9   2.0000     -11.253984      -306.2365
  10   2.0000     -11.250911      -306.1529
  11   2.0000     -11.250478      -306.1411
  12   2.0000     -11.249084      -306.1031
  13   2.0000     -11.245495      -306.0055
  14   2.0000     -11.244125      -305.9682
  15   2.0000     -11.240964      -305.8822
  16   2.0000     -11.231719      -305.6306
  17   2.0000     -11.230666      -305.6019
  18   2.0000      -1.407500       -38.3000
  19   2.0000      -1.403649       -38.1952
  20   2.0000      -1.390113       -37.8269
  21   2.0000      -1.361206       -37.0403
  22   2.0000      -1.154226       -31.4081
  23   2.0000      -1.146636       -31.2015
  24   2.0000      -1.051116       -28.6023
  25   2.0000      -1.022210       -27.8158
  26   2.0000      -1.012749       -27.5583
  27   2.0000      -1.009189       -27.4614
  28   2.0000      -0.952768       -25.9261
  29   2.0000      -0.880343       -23.9554
  30   2.0000      -0.852898       -23.2085
  31   2.0000      -0.843670       -22.9574
  32   2.0000      -0.826357       -22.4863
  33   2.0000      -0.780381       -21.2353
  34   2.0000      -0.754560       -20.5326
  35   2.0000      -0.731196       -19.8968
  36   2.0000      -0.709418       -19.3043
  37   2.0000      -0.699746       -19.0411
  38   2.0000      -0.682437       -18.5701
  39   2.0000      -0.668337       -18.1864
  40   2.0000      -0.663940       -18.0667
  41   2.0000      -0.648217       -17.6389
  42   2.0000      -0.633007       -17.2250
  43   2.0000      -0.622517       -16.9396
  44   2.0000      -0.617035       -16.7904
  45   2.0000      -0.608231       -16.5508
  46   2.0000      -0.598011       -16.2727
  47   2.0000      -0.596019       -16.2185
  48   2.0000      -0.587144       -15.9770
  49   2.0000      -0.572868       -15.5885
  50   2.0000      -0.555480       -15.1154
  51   2.0000      -0.540246       -14.7008
  52   2.0000      -0.537548       -14.6274
  53   2.0000      -0.525843       -14.3089
  54   2.0000      -0.522067       -14.2062
  55   2.0000      -0.510419       -13.8892
  56   2.0000      -0.504888       -13.7387
  57   2.0000      -0.497610       -13.5407
  58   2.0000      -0.447030       -12.1643
  59   2.0000      -0.432660       -11.7733
  60   2.0000      -0.345734        -9.4079
  61   2.0000      -0.343799        -9.3552
  62   2.0000      -0.336486        -9.1563
  63   2.0000      -0.324035        -8.8174
  64   0.0000       0.071835         1.9547
  65   0.0000       0.124980         3.4009
  66   0.0000       0.128012         3.4834
  67   0.0000       0.144375         3.9286
  68   0.0000       0.170401         4.6369

MULLIKEN ATOMIC CHARGES
-----------------------
   0 C :    0.218587
   1 O :   -0.544979
   2 C :    0.419587
   3 C :   -0.243550
   4 C :    0.374901
   5 O :   -0.394893
   6 C :   -0.357972
   7 C :    0.476421
   8 O :   -0.462824
   9 C :   -0.166546
  10 C :    0.037790
  11 C :   -0.057538
  12 C :   -0.015196
  13 C :   -0.048996
  14 C :    0.025311
  15 C :    0.374632
  16 O :   -0.364163
  17 C :   -0.202127
  18 H :    0.054539
  19 H :    0.043071
  20 H :    0.042076
  21 H :    0.040839
  22 H :    0.256491
  23 H :    0.052136
  24 H :    0.043847
  25 H :    0.046942
  26 H :    0.046129
  27 H :    0.059825
  28 H :    0.219550
  29 H :    0.026108
Sum of atomic charges:   -0.0000000

LOEWDIN ATOMIC CHARGES
----------------------
   0 C :    0.135069
   1 O :   -0.189020
   2 C :    0.154955
   3 C :   -0.149261
   4 C :    0.182937
   5 O :   -0.127053
   6 C :   -0.198566
   7 C :    0.204219
   8 O :   -0.266996
   9 C :   -0.073291
  10 C :    0.012894
  11 C :   -0.032747
  12 C :   -0.003438
  13 C :   -0.031339
  14 C :    0.024933
  15 C :    0.151098
  16 O :   -0.108070
  17 C :   -0.154112
  18 H :    0.022617
  19 H :    0.012572
  20 H :    0.012201
  21 H :    0.035249
  22 H :    0.091828
  23 H :    0.031349
  24 H :    0.028098
  25 H :    0.029221
  26 H :    0.028946
  27 H :    0.037804
  28 H :    0.109191
  29 H :    0.028710

  Mayer bond orders larger than 0.100000
B(  0-C ,  1-O ) :   0.8562 B(  0-C , 18-H ) :   0.9926 B(  0-C , 19-H ) :   0.9860
B(  0-C , 20-H ) :   0.9859 B(  1-O ,  2-C ) :   1.0249 B(  2-C ,  3-C ) :   1.3206
B(  2-C , 17-C ) :   1.3453 B(  3-C ,  4-C ) :   1.3768 B(  3-C , 21-H ) :   1.0203
B(  4-C ,  5-O ) :   1.1614 B(  4-C ,  6-C ) :   1.3350 B(  5-O , 22-H ) :   0.8991
B(  6-C ,  7-C ) :   0.9558 B(  6-C , 15-C ) :   1.3370 B(  7-C ,  8-O ) :   1.8939
B(  7-C ,  9-C ) :   0.9992 B(  9-C , 10-C ) :   1.3927 B(  9-C , 14-C ) :   1.4062
B( 10-C , 11-C ) :   1.4355 B( 10-C , 23-H ) :   0.9944 B( 11-C , 12-C ) :   1.4116
B( 11-C , 24-H ) :   0.9995 B( 12-C , 13-C ) :   1.4054 B( 12-C , 25-H ) :   0.9990
B( 13-C , 14-C ) :   1.4239 B( 13-C , 26-H ) :   1.0006 B( 14-C , 27-H ) :   1.0001
B( 15-C , 16-O ) :   1.0993 B( 15-C , 17-C ) :   1.3926 B( 16-O , 28-H ) :   0.9507
B( 17-C , 29-H ) :   1.0112

FINAL SINGLE POINT ENERGY      -835.953304516870

DIPOLE MOMENT
-------------
                                X             Y             Z
Electronic contribution:     -3.24299       3.80061      -0.48480
Nuclear contribution   :      3.50516      -4.95979       1.42776
                        -----------------------------------------
Total Dipole Moment    :      0.26217      -1.15918       0.94296
                        -----------------------------------------
Magnitude (a.u.)       :      1.51710
Magnitude (Debye)      :      3.85617

Rotational constants in cm-1:     0.032334     0.007783     0.006842
Rotational constants in MHz :   969.335490   233.332949   205.109202

                             ****ORCA TERMINATED NORMALLY****
TOTAL RUN TIME: 0 days 0 hours 0 minutes 13 seconds 494 msec
