                         Program Version 5.0.3 -  RELEASE  -
|  1> !RHF def2-SVP TightSCF PAL16
|  2> *xyz 0 1
|  3> C -1.3477590461791817 1.786740864426257 1.102383214610494
|  4> C -2.127726471855007 0.4858464592859498 1.2276736179074914
|  5> C -3.66380067605972 0.6434979900162398 1.0717333664008666
|  6> C -4.031335679129351 1.268624613614448 -0.2847829667773282
|  7> C -3.712294020051342 0.14571899689101217 -1.279443393467466
|  8> C -3.199165372259561 -0.9856324039344256 -0.37281678939949514
|  9> C -4.098387251808655 -0.8083058039754191 0.8547079237580334
| 10> C -1.8011155262573006 -0.6636312335461213 0.22872043433301928
| 11> C -0.7047329885390186 -0.42817388276280355 -0.8173398737647533
| 12> N 0.6636297053342827 -0.2788232774640235 -0.29611450760132896
| 13> C 1.150523709286173 -1.2587474454233294 0.6947302429295733
| 14> C 1.3272835608242288 -2.674427318307856 0.1281071926752639
| 15> O 2.3880487746180536 -2.7368344440117713 -0.8204200118866888
| 16> C 1.5459347960943182 0.4233436932745636 -1.1358385721678936
| 17> O 1.22610174977236 0.9062070775430928 -2.220011903315601
| 18> C 2.939228825199137 0.6457328519550212 -0.6964011650677571
| 19> C 3.2062967878387663 1.3581782211649989 0.4785601063584389
| 20> C 4.529985780189031 1.5842828984345254 0.8616175258382879
| 21> C 5.573341302957318 1.1128353680375924 0.062293702737586325
| 22> Cl 7.2028779751047365 1.3893545087750294 0.5398839856361601
| 23> C 5.307340123734828 0.4239603545707304 -1.1222318132352054
| 24> C 3.985282780472169 0.19694112933498176 -1.5091372587680512
| 25> H -1.3491723257754051 2.1878443279771 0.08556400500107801
| 26> H -1.7715493571179373 2.549821288444074 1.7640212625314962
| 27> H -0.30559782785219225 1.6413358205700976 1.402781836012905
| 28> H -1.9388525884994892 0.101678906457861 2.2407048054105885
| 29> H -4.1354073464696866 1.1422401308874985 1.9216258895185354
| 30> H -5.102219044003248 1.5017782837703386 -0.32048926570366837
| 31> H -3.4891442072269783 2.190350243031964 -0.5081467205878949
| 32> H -3.0012264961862187 0.4570342049586256 -2.0476104006667493
| 33> H -4.630452489488168 -0.16456991847133634 -1.792629302270658
| 34> H -3.249928664050578 -1.9724321092067498 -0.8390014760284579
| 35> H -3.835950892299883 -1.4701937307843251 1.686790701872787
| 36> H -5.165197116587104 -0.9125304035165948 0.6291670042152624
| 37> H -1.5264275740124238 -1.5458930820440289 0.822222205116296
| 38> H -0.6840603102549253 -1.2681337467483138 -1.5229045450932193
| 39> H -0.9443163527177905 0.4595413927047445 -1.4106312607569413
| 40> H 0.45569114616236117 -1.2698490700740164 1.5389215552612685
| 41> H 2.1108010933935635 -0.9332030787182646 1.0992165941612557
| 42> H 1.564447423627422 -3.3717885861524413 0.9381396479420232
| 43> H 0.41501626887984117 -3.0282728733467614 -0.3603010611107469
| 44> H 3.205450841295593 -2.457651249351514 -0.373865599349178
| 45> H 2.389572623099076 1.7424824602173217 1.0844823607528993
| 46> H 4.7418803430661995 2.135600568704974 1.7741603890029296
| 47> H 6.120936456962879 0.07242311680938078 -1.7516257746096664
| 48> H 3.7661475567654326 -0.32430211401912923 -2.439199434514549
| 49> *
| 50>
| 51>                          ****END OF INPUT****

CARTESIAN COORDINATES (ANGSTROEM)
---------------------------------
  C     -1.347759    1.786741    1.102383
  C     -2.127726    0.485846    1.227674
  C     -3.663801    0.643498    1.071733
  C     -4.031336    1.268625   -0.284783
  C     -3.712294    0.145719   -1.279443
  C     -3.199165   -0.985632   -0.372817
  C     -4.098387   -0.808306    0.854708
  C     -1.801116   -0.663631    0.228720
  C     -0.704733   -0.428174   -0.817340
  N      0.663630   -0.278823   -0.296115
  C      1.150524   -1.258747    0.694730
  C      1.327284   -2.674427    0.128107
  O      2.388049   -2.736834   -0.820420
  C      1.545935    0.423344   -1.135839
  O      1.226102    0.906207   -2.220012
  C      2.939229    0.645733   -0.696401
  C      3.206297    1.358178    0.478560
  C      4.529986    1.584283    0.861618
  C      5.573341    1.112835    0.062294
  Cl     7.202878    1.389355    0.539884
  C      5.307340    0.423960   -1.122232
  C      3.985283    0.196941   -1.509137
  H     -1.349172    2.187844    0.085564
  H     -1.771549    2.549821    1.764021
  H     -0.305598    1.641336    1.402782
  H     -1.938853    0.101679    2.240705
  H     -4.135407    1.142240    1.921626
  H     -5.102219    1.501778   -0.320489
  H     -3.489144    2.190350   -0.508147
  H     -3.001226    0.457034   -2.047610
  H     -4.630452   -0.164570   -1.792629
  H     -3.249929   -1.972432   -0.839001
  H     -3.835951   -1.470194    1.686791
  H     -5.165197   -0.912530    0.629167
  H     -1.526428   -1.545893    0.822222
  H     -0.684060   -1.268134   -1.522905
  H     -0.944316    0.459541   -1.410631
  H      0.455691   -1.269849    1.538922
  H      2.110801   -0.933203    1.099217
  H      1.564447   -3.371789    0.938140
  H      0.415016   -3.028273   -0.360301
  H      3.205451   -2.457651   -0.373866
  H      2.389573    1.742482    1.084482
  H      4.741880    2.135601    1.774160
  H      6.120936    0.072423   -1.751626
  H      3.766148   -0.324302   -2.439199

 Total Charge           Charge          ....    0
 Multiplicity           Mult            ....    1
 Number of Electrons    NEL             ....  172
 Basis Dimension        Dim             ....  432

ORBITAL ENERGIES
----------------

  NO   OCC          E(Eh)            E(eV)
   0   2.0000    -104.801935     -2851.8056
   1   2.0000     -20.559165      -559.4433
   2   2.0000     -20.519194      -558.3557
   3   2.0000     -15.590092      -424.2280
   4   2.0000     -11.358998      -309.0940
   5   2.0000     -11.312554      -307.8302
   6   2.0000     -11.293032      -307.2990
   7   2.0000     -11.284045      -307.0545
   8   2.0000     -11.267169      -306.5953
   9   2.0000     -11.264439      -306.5210
  10   2.0000     -11.263686      -306.5005
  11   2.0000     -11.262570      -306.4701
  12   2.0000     -11.261779      -306.4486
  13   2.0000     -11.260588      -306.4162
  14   2.0000     -11.234321      -305.7014
  15   2.0000     -11.230105      -305.5867
  16   2.0000     -11.229643      -305.5741
  17   2.0000     -11.225047      -305.4491
  18   2.0000     -11.221247      -305.3457
  19   2.0000     -11.219887      -305.3086
  20   2.0000     -11.219498      -305.2981
  21   2.0000     -11.218503      -305.2710
  22   2.0000     -10.565819      -287.5106
  23   2.0000      -8.040953      -218.8055
  24   2.0000      -8.037312      -218.7064
  25   2.0000      -8.037267      -218.7052
  26   2.0000      -1.364990       -37.1433
  27   2.0000      -1.347638       -36.6711
  28   2.0000      -1.229066       -33.4446
  29   2.0000      -1.194575       -32.5060
  30   2.0000      -1.170958       -31.8634
  31   2.0000      -1.128558       -30.7096
  32   2.0000      -1.039335       -28.2817
  33   2.0000      -1.031744       -28.0752
  34   2.0000      -1.017584       -27.6899
  35   2.0000      -1.012757       -27.5585
  36   2.0000      -0.993939       -27.0465
  37   2.0000      -0.961900       -26.1746
  38   2.0000      -0.923115       -25.1192
  39   2.0000      -0.880164       -23.9505
  40   2.0000      -0.868916       -23.6444
  41   2.0000      -0.853467       -23.2240
  42   2.0000      -0.832608       -22.6564
  43   2.0000      -0.796055       -21.6618
  44   2.0000      -0.764054       -20.7910
  45   2.0000      -0.759753       -20.6739
  46   2.0000      -0.730236       -19.8707
  47   2.0000      -0.698816       -19.0158
  48   2.0000      -0.693554       -18.8726
  49   2.0000      -0.686671       -18.6853
  50   2.0000      -0.677257       -18.4291
  51   2.0000      -0.665246       -18.1023
  52   2.0000      -0.657115       -17.8810
  53   2.0000      -0.649757       -17.6808
  54   2.0000      -0.647758       -17.6264
  55   2.0000      -0.630627       -17.1602
  56   2.0000      -0.624423       -16.9914
  57   2.0000      -0.617888       -16.8136
  58   2.0000      -0.613459       -16.6931
  59   2.0000      -0.595440       -16.2028
  60   2.0000      -0.582610       -15.8536
  61   2.0000      -0.575621       -15.6634
  62   2.0000      -0.559720       -15.2308
  63   2.0000      -0.554350       -15.0846
  64   2.0000      -0.542619       -14.7654
  65   2.0000      -0.541470       -14.7342
  66   2.0000      -0.533885       -14.5278
  67   2.0000      -0.529125       -14.3982
  68   2.0000      -0.524090       -14.2612
  69   2.0000      -0.509970       -13.8770
  70   2.0000      -0.504640       -13.7319
  71   2.0000      -0.502074       -13.6621
  72   2.0000      -0.498952       -13.5772
  73   2.0000      -0.485201       -13.2030
  74   2.0000      -0.478123       -13.0104
  75   2.0000      -0.472441       -12.8558
  76   2.0000      -0.469713       -12.7816
  77   2.0000      -0.465572       -12.6689
  78   2.0000      -0.458911       -12.4876
  79   2.0000      -0.437898       -11.9158
  80   2.0000      -0.431808       -11.7501
  81   2.0000      -0.428494       -11.6599
  82   2.0000      -0.417154       -11.3513
  83   2.0000      -0.373528       -10.1642
  84   2.0000      -0.362219        -9.8565
  85   2.0000      -0.340473        -9.2647
  86   0.0000       0.098017         2.6672
  87   0.0000       0.106825         2.9069
  88   0.0000       0.149766         4.0753
  89   0.0000       0.168691         4.5903
  90   0.0000       0.175138         4.7657

MULLIKEN ATOMIC CHARGES
-----------------------
   0 C :    0.080511
   1 C :   -0.132221
   2 C :   -0.241042
   3 C :    0.045182
   4 C :    0.042773
   5 C :   -0.238895
   6 C :    0.089927
   7 C :   -0.134425
   8 C :    0.303090
   9 N :   -0.686204
  10 C :    0.121683
  11 C :    0.291402
  12 O :   -0.471519
  13 C :    0.583676
  14 O :   -0.441987
  15 C :   -0.205719
  16 C :    0.004560
  17 C :   -0.008708
  18 C :    0.034599
  19 Cl:   -0.129926
  20 C :   -0.015847
  21 C :    0.021118
  22 H :    0.031509
  23 H :    0.028399
  24 H :    0.023331
  25 H :    0.024202
  26 H :    0.023631
  27 H :    0.033136
  28 H :    0.035874
  29 H :    0.040940
  30 H :    0.034289
  31 H :    0.024370
  32 H :    0.028587
  33 H :    0.036460
  34 H :    0.026091
  35 H :    0.036907
  36 H :    0.067906
  37 H :    0.048250
  38 H :    0.050786
  39 H :    0.020970
  40 H :    0.037800
  41 H :    0.201763
  42 H :    0.055388
  43 H :    0.050988
  44 H :    0.055232
  45 H :    0.071161
Sum of atomic charges:    0.0000000

LOEWDIN ATOMIC CHARGES
----------------------
   0 C :   -0.029923
   1 C :   -0.019063
   2 C :   -0.020078
   3 C :   -0.012156
   4 C :   -0.012407
   5 C :   -0.015361
   6 C :   -0.009875
   7 C :   -0.026483
   8 C :    0.082786
   9 N :   -0.148167
  10 C :    0.057367
  11 C :    0.117857
  12 O :   -0.199973
  13 C :    0.199231
  14 O :   -0.294226
  15 C :   -0.063661
  16 C :   -0.003568
  17 C :   -0.038844
  18 C :   -0.110491
  19 Cl:    0.098970
  20 C :   -0.038733
  21 C :    0.017049
  22 H :    0.015448
  23 H :    0.017256
  24 H :    0.011070
  25 H :    0.010280
  26 H :    0.005983
  27 H :    0.014689
  28 H :    0.011657
  29 H :    0.013152
  30 H :    0.015627
  31 H :    0.006182
  32 H :    0.009258
  33 H :    0.012311
  34 H :    0.006085
  35 H :    0.010822
  36 H :    0.024387
  37 H :    0.018265
  38 H :    0.018058
  39 H :    0.003493
  40 H :    0.015510
  41 H :    0.081984
  42 H :    0.034084
  43 H :    0.034196
  44 H :    0.035684
  45 H :    0.044267

  Mayer bond orders larger than 0.100000
B(  0-C ,  1-C ) :   1.0505 B(  0-C , 22-H ) :   0.9710 B(  0-C , 23-H ) :   0.9814
B(  0-C , 24-H ) :   0.9814 B(  1-C ,  2-C ) :   0.9816 B(  1-C ,  7-C ) :   0.9262
B(  1-C , 25-H ) :   0.9581 B(  2-C ,  3-C ) :   0.9911 B(  2-C ,  6-C ) :   0.9748
B(  2-C , 26-H ) :   0.9816 B(  3-C ,  4-C ) :   1.0225 B(  3-C , 27-H ) :   0.9718
B(  3-C , 28-H ) :   0.9717 B(  4-C ,  5-C ) :   0.9922 B(  4-C , 29-H ) :   0.9731
B(  4-C , 30-H ) :   0.9713 B(  5-C ,  6-C ) :   0.9785 B(  5-C ,  7-C ) :   0.9941
B(  5-C , 31-H ) :   0.9801 B(  6-C , 32-H ) :   0.9784 B(  6-C , 33-H ) :   0.9842
B(  7-C ,  8-C ) :   1.0222 B(  7-C , 34-H ) :   0.9492 B(  8-C ,  9-N ) :   0.8626
B(  8-C , 35-H ) :   0.9843 B(  8-C , 36-H ) :   0.9642 B(  9-N , 10-C ) :   0.9007
B(  9-N , 13-C ) :   1.0851 B( 10-C , 11-C ) :   1.0163 B( 10-C , 37-H ) :   0.9719
B( 10-C , 38-H ) :   0.9678 B( 11-C , 12-O ) :   0.9088 B( 11-C , 39-H ) :   0.9833
B( 11-C , 40-H ) :   0.9676 B( 12-O , 41-H ) :   0.9645 B( 13-C , 14-O ) :   1.9391
B( 13-C , 15-C ) :   0.9410 B( 15-C , 16-C ) :   1.4075 B( 15-C , 21-C ) :   1.4253
B( 16-C , 17-C ) :   1.4195 B( 16-C , 42-H ) :   1.0005 B( 17-C , 18-C ) :   1.4072
B( 17-C , 43-H ) :   1.0027 B( 18-C , 19-Cl) :   0.9573 B( 18-C , 20-C ) :   1.3975
B( 20-C , 21-C ) :   1.4134 B( 20-C , 44-H ) :   1.0037 B( 21-C , 45-H ) :   0.9992

FINAL SINGLE POINT ENERGY     -1358.446723061797

DIPOLE MOMENT
-------------
                                X             Y             Z
Electronic contribution:     48.50075       7.04082      -3.39023
Nuclear contribution   :    -48.98465      -7.74104       5.00491
                        -----------------------------------------
Total Dipole Moment    :     -0.48390      -0.70022       1.61468
                        -----------------------------------------
Magnitude (a.u.)       :      1.82529
Magnitude (Debye)      :      4.63952

Rotational constants in cm-1:     0.020678     0.003719     0.003533
Rotational constants in MHz :   619.915192   111.488653   105.902492

                             ****ORCA TERMINATED NORMALLY****
TOTAL RUN TIME: 0 days 0 hours 0 minutes 35 seconds 831 msec
