                         Program Version 5.0.3 -  RELEASE  -
|  1> !RHF def2-SVP TightSCF PAL16
|  2> *xyz 0 1
|  3> C -5.900473486674462 0.943642955688324 -0.4645097370437635
|  4> C -4.387845395734773 1.096127017711314 -0.6165066251002903
|  5> C -3.940893667740897 2.4624632520369754 -0.09898791063912336
|  6> C -3.6424558214176517 -0.026173518238512196 0.11433610880645956
|  7> O -4.215211032944822 -0.7780660588418874 0.8960078291134124
|  8> N -2.2968385136973004 -0.060370871036943184 -0.21432002496243688
|  9> C -1.3130954244693613 -0.9518345842775319 0.26108060613734196
| 10> C -1.5610929121728547 -1.981814866912786 1.166739186897572
| 11> C -0.5265846703102965 -2.827239689005904 1.5751840808310948
| 12> C 0.7664095573134635 -2.6457799054768434 1.0862896467632224
| 13> C 1.044998388547057 -1.6103561453274613 0.18368365372856968
| 14> C 2.4578168645292053 -1.415694366998573 -0.32427219888917147
| 15> C 3.4316904961698897 -0.9565887322904972 0.8061451784955609
| 16> N 4.3492844304615845 -0.1364030080269342 0.04788956118423709
| 17> C 5.0999450401222095 0.9517649725569445 0.641710636625965
| 18> C 5.636606196516867 1.7689042687031757 -0.5434830862894833
| 19> S 4.34678324520977 1.6360493951289452 -1.8417378315034254
| 20> C 3.674823358840099 0.2355425404624482 -1.0780183171212374
| 21> N 2.5863426451490703 -0.3803090757251907 -1.4193025201507177
| 22> C -0.008732043108470783 -0.7749349758473464 -0.22291135071955773
| 23> H -6.428954545585294 1.7129368153177642 -1.0372557387752528
| 24> H -6.231572091404339 -0.03471128822533304 -0.8295634631043022
| 25> H -6.208742217868676 1.0287320660747892 0.5834837763022267
| 26> H -4.14615735557248 1.0181878375276743 -1.6841863263995336
| 27> H -2.8726419464312767 2.628226253613079 -0.2722722687026841
| 28> H -4.115209312668116 2.5516835264637243 0.9791125276686273
| 29> H -4.4866750231372405 3.267887489084109 -0.6015951316159197
| 30> H -1.9750274235346208 0.6186046826253714 -0.8928769876131367
| 31> H -2.5525967063381048 -2.1618923254153195 1.5695341837561483
| 32> H -0.7377364750971274 -3.6330737109699918 2.27394912645999
| 33> H 1.551707126345172 -3.324580346443653 1.411512038021805
| 34> H 2.805005232100802 -2.3656679647507795 -0.7542058742167713
| 35> H 3.932586696745215 -1.8045105504091794 1.2830201429739192
| 36> H 2.9152037013248244 -0.3636757400599699 1.570798388765716
| 37> H 5.916899007684106 0.579634331143635 1.267725349776021
| 38> H 4.447254909404211 1.5760444578952715 1.264851586638697
| 39> H 6.5579597099288796 1.3234956128605058 -0.9323516056371906
| 40> H 5.827389875226624 2.810558739106648 -0.27271117376018744
| 41> H 0.19982958428885525 0.02319151027999456 -0.9330601911965906
| 42> *
| 43>
| 44>                          ****END OF INPUT****

CARTESIAN COORDINATES (ANGSTROEM)
---------------------------------
  C     -5.900473    0.943643   -0.464510
  C     -4.387845    1.096127   -0.616507
  C     -3.940894    2.462463   -0.098988
  C     -3.642456   -0.026174    0.114336
  O     -4.215211   -0.778066    0.896008
  N     -2.296839   -0.060371   -0.214320
  C     -1.313095   -0.951835    0.261081
  C     -1.561093   -1.981815    1.166739
  C     -0.526585   -2.827240    1.575184
  C      0.766410   -2.645780    1.086290
  C      1.044998   -1.610356    0.183684
  C      2.457817   -1.415694   -0.324272
  C      3.431690   -0.956589    0.806145
  N      4.349284   -0.136403    0.047890
  C      5.099945    0.951765    0.641711
  C      5.636606    1.768904   -0.543483
  S      4.346783    1.636049   -1.841738
  C      3.674823    0.235543   -1.078018
  N      2.586343   -0.380309   -1.419303
  C     -0.008732   -0.774935   -0.222911
  H     -6.428955    1.712937   -1.037256
  H     -6.231572   -0.034711   -0.829563
  H     -6.208742    1.028732    0.583484
  H     -4.146157    1.018188   -1.684186
  H     -2.872642    2.628226   -0.272272
  H     -4.115209    2.551684    0.979113
  H     -4.486675    3.267887   -0.601595
  H     -1.975027    0.618605   -0.892877
  H     -2.552597   -2.161892    1.569534
  H     -0.737736   -3.633074    2.273949
  H      1.551707   -3.324580    1.411512
  H      2.805005   -2.365668   -0.754206
  H      3.932587   -1.804511    1.283020
  H      2.915204   -0.363676    1.570798
  H      5.916899    0.579634    1.267725
  H      4.447255    1.576044    1.264852
  H      6.557960    1.323496   -0.932352
  H      5.827390    2.810559   -0.272711
  H      0.199830    0.023192   -0.933060

 Total Charge           Charge          ....    0
 Multiplicity           Mult            ....    1
 Number of Electrons    NEL             ....  154
 Basis Dimension        Dim             ....  379

ORBITAL ENERGIES
----------------

  NO   OCC          E(Eh)            E(eV)
   0   2.0000     -91.937965     -2501.7592
   1   2.0000     -20.521455      -558.4172
   2   2.0000     -15.600311      -424.5060
   3   2.0000     -15.590190      -424.2307
   4   2.0000     -15.536933      -422.7814
   5   2.0000     -11.358067      -309.0687
   6   2.0000     -11.337025      -308.4961
   7   2.0000     -11.296939      -307.4053
   8   2.0000     -11.287865      -307.1584
   9   2.0000     -11.283411      -307.0372
  10   2.0000     -11.277467      -306.8755
  11   2.0000     -11.270946      -306.6980
  12   2.0000     -11.246568      -306.0347
  13   2.0000     -11.242746      -305.9307
  14   2.0000     -11.237027      -305.7751
  15   2.0000     -11.234752      -305.7131
  16   2.0000     -11.228356      -305.5391
  17   2.0000     -11.226532      -305.4895
  18   2.0000     -11.220173      -305.3164
  19   2.0000     -11.220057      -305.3133
  20   2.0000      -8.975922      -244.2473
  21   2.0000      -6.663450      -181.3217
  22   2.0000      -6.662325      -181.2911
  23   2.0000      -6.659894      -181.2249
  24   2.0000      -1.364724       -37.1360
  25   2.0000      -1.330462       -36.2037
  26   2.0000      -1.238592       -33.7038
  27   2.0000      -1.179728       -32.1020
  28   2.0000      -1.130010       -30.7491
  29   2.0000      -1.097398       -29.8617
  30   2.0000      -1.076428       -29.2911
  31   2.0000      -1.029659       -28.0184
  32   2.0000      -0.996578       -27.1183
  33   2.0000      -0.978213       -26.6185
  34   2.0000      -0.959737       -26.1158
  35   2.0000      -0.927619       -25.2418
  36   2.0000      -0.876435       -23.8490
  37   2.0000      -0.861890       -23.4532
  38   2.0000      -0.845579       -23.0094
  39   2.0000      -0.815258       -22.1843
  40   2.0000      -0.797215       -21.6933
  41   2.0000      -0.749600       -20.3977
  42   2.0000      -0.732855       -19.9420
  43   2.0000      -0.714273       -19.4364
  44   2.0000      -0.701194       -19.0805
  45   2.0000      -0.685986       -18.6666
  46   2.0000      -0.672705       -18.3052
  47   2.0000      -0.663464       -18.0538
  48   2.0000      -0.641256       -17.4495
  49   2.0000      -0.631312       -17.1789
  50   2.0000      -0.619610       -16.8605
  51   2.0000      -0.615664       -16.7531
  52   2.0000      -0.600461       -16.3394
  53   2.0000      -0.592661       -16.1271
  54   2.0000      -0.585739       -15.9388
  55   2.0000      -0.575347       -15.6560
  56   2.0000      -0.569971       -15.5097
  57   2.0000      -0.554829       -15.0977
  58   2.0000      -0.549920       -14.9641
  59   2.0000      -0.547435       -14.8965
  60   2.0000      -0.543670       -14.7940
  61   2.0000      -0.524467       -14.2715
  62   2.0000      -0.521208       -14.1828
  63   2.0000      -0.512570       -13.9477
  64   2.0000      -0.508435       -13.8352
  65   2.0000      -0.496358       -13.5066
  66   2.0000      -0.489544       -13.3212
  67   2.0000      -0.485919       -13.2225
  68   2.0000      -0.480993       -13.0885
  69   2.0000      -0.472149       -12.8478
  70   2.0000      -0.433940       -11.8081
  71   2.0000      -0.424283       -11.5453
  72   2.0000      -0.414904       -11.2901
  73   2.0000      -0.379489       -10.3264
  74   2.0000      -0.339013        -9.2250
  75   2.0000      -0.326049        -8.8722
  76   2.0000      -0.302247        -8.2246
  77   0.0000       0.129565         3.5256
  78   0.0000       0.137861         3.7514
  79   0.0000       0.156698         4.2640
  80   0.0000       0.160271         4.3612
  81   0.0000       0.170365         4.6359

MULLIKEN ATOMIC CHARGES
-----------------------
   0 C :    0.044721
   1 C :   -0.307981
   2 C :    0.004064
   3 C :    0.482422
   4 O :   -0.435501
   5 N :   -0.394222
   6 C :    0.213367
   7 C :   -0.099968
   8 C :   -0.001217
   9 C :   -0.055429
  10 C :   -0.140155
  11 C :    0.132401
  12 C :    0.278962
  13 N :   -0.636044
  14 C :    0.206764
  15 C :   -0.110149
  16 S :   -0.028669
  17 C :    0.330687
  18 N :   -0.469188
  19 C :   -0.057489
  20 H :    0.025342
  21 H :    0.042960
  22 H :    0.045338
  23 H :    0.055229
  24 H :    0.025125
  25 H :    0.045889
  26 H :    0.046432
  27 H :    0.166142
  28 H :    0.076217
  29 H :    0.040173
  30 H :    0.021048
  31 H :    0.058137
  32 H :    0.042491
  33 H :    0.036204
  34 H :    0.054928
  35 H :    0.039469
  36 H :    0.096015
  37 H :    0.087760
  38 H :    0.037725
Sum of atomic charges:   -0.0000000

LOEWDIN ATOMIC CHARGES
----------------------
   0 C :   -0.019012
   1 C :   -0.063733
   2 C :   -0.021624
   3 C :    0.199326
   4 O :   -0.291194
   5 N :   -0.055730
   6 C :    0.060289
   7 C :   -0.052843
   8 C :   -0.004019
   9 C :   -0.059469
  10 C :   -0.020222
  11 C :    0.065043
  12 C :    0.079020
  13 N :   -0.160113
  14 C :    0.068475
  15 C :   -0.101797
  16 S :    0.277384
  17 C :   -0.032328
  18 N :   -0.276367
  19 C :   -0.052850
  20 H :    0.014435
  21 H :    0.023113
  22 H :    0.024449
  23 H :    0.022136
  24 H :    0.010831
  25 H :    0.024555
  26 H :    0.022163
  27 H :    0.086592
  28 H :    0.037178
  29 H :    0.028610
  30 H :    0.018482
  31 H :    0.022650
  32 H :    0.016308
  33 H :    0.008404
  34 H :    0.021236
  35 H :    0.006613
  36 H :    0.022621
  37 H :    0.026060
  38 H :    0.025328

  Mayer bond orders larger than 0.100000
B(  0-C ,  1-C ) :   1.0397 B(  0-C , 20-H ) :   0.9858 B(  0-C , 21-H ) :   0.9834
B(  0-C , 22-H ) :   0.9779 B(  1-C ,  2-C ) :   1.0040 B(  1-C ,  3-C ) :   0.9208
B(  1-C , 23-H ) :   0.9615 B(  2-C , 24-H ) :   0.9860 B(  2-C , 25-H ) :   0.9801
B(  2-C , 26-H ) :   0.9875 B(  3-C ,  4-O ) :   1.9439 B(  3-C ,  5-N ) :   1.1023
B(  5-N ,  6-C ) :   0.9858 B(  5-N , 27-H ) :   0.9300 B(  6-C ,  7-C ) :   1.4135
B(  6-C , 19-C ) :   1.3498 B(  7-C ,  8-C ) :   1.4049 B(  7-C , 28-H ) :   0.9973
B(  8-C ,  9-C ) :   1.4302 B(  8-C , 29-H ) :   0.9989 B(  9-C , 10-C ) :   1.3868
B(  9-C , 30-H ) :   1.0067 B( 10-C , 11-C ) :   0.9808 B( 10-C , 19-C ) :   1.4828
B( 11-C , 12-C ) :   1.0247 B( 11-C , 18-N ) :   0.9908 B( 11-C , 31-H ) :   0.9414
B( 12-C , 13-N ) :   0.8932 B( 12-C , 32-H ) :   0.9690 B( 12-C , 33-H ) :   0.9750
B( 13-N , 14-C ) :   0.8947 B( 13-N , 17-C ) :   1.0391 B( 14-C , 15-C ) :   1.0060
B( 14-C , 34-H ) :   0.9771 B( 14-C , 35-H ) :   0.9715 B( 15-C , 16-S ) :   0.9691
B( 15-C , 36-H ) :   0.9601 B( 15-C , 37-H ) :   0.9735 B( 16-S , 17-C ) :   1.0200
B( 17-C , 18-N ) :   1.8235 B( 19-C , 38-H ) :   0.9947

FINAL SINGLE POINT ENERGY     -1214.100787919841

DIPOLE MOMENT
-------------
                                X             Y             Z
Electronic contribution:     15.93378      -5.73138      -5.34987
Nuclear contribution   :    -14.11802       6.98831       5.83965
                        -----------------------------------------
Total Dipole Moment    :      1.81576       1.25693       0.48978
                        -----------------------------------------
Magnitude (a.u.)       :      2.26202
Magnitude (Debye)      :      5.74959

Rotational constants in cm-1:     0.019268     0.004318     0.003709
Rotational constants in MHz :   577.625970   129.442461   111.207230

                             ****ORCA TERMINATED NORMALLY****
TOTAL RUN TIME: 0 days 0 hours 0 minutes 19 seconds 188 msec
