                         Program Version 5.0.3 -  RELEASE  -
|  1> !RHF def2-SVP TightSCF PAL16
|  2> *xyz 0 1
|  3> C 4.518652239748681 0.14374188109736896 1.726220037732089
|  4> C 3.430390664931581 -0.5509111716918735 1.3683372650201815
|  5> C 3.036123198407129 -0.8522787614982218 -0.04924728721204896
|  6> N 1.7997492945325517 -0.15334855412497464 -0.35190484063876465
|  7> C 0.5653817464606194 -0.6977628163455343 -0.08617501133603508
|  8> O 0.3546314721366561 -1.796767023784782 0.4103985256509339
|  9> C -0.5234223453074234 0.2967734365558075 -0.5149713258264832
| 10> C -1.3919749708663418 0.7618386131983556 0.6551477724416211
| 11> C -2.7916810885255527 0.11844393212403526 0.7433070170649847
| 12> C -2.7452451244486253 -1.4017783098120002 0.8754259672003579
| 13> C -3.6863213634727283 0.526982673327136 -0.42881179411307285
| 14> N 0.31164413439509514 1.3680488688097279 -1.009972977671529
| 15> C 1.6555761666591735 1.0808457989631137 -0.9170147270951196
| 16> S 2.806546791000506 2.144105824755743 -1.4557775280652965
| 17> H 4.746983571414765 0.3177025226786544 2.773464140897337
| 18> H 5.198991999290263 0.5617998152575671 0.9899293023608305
| 19> H 2.7815164541253865 -0.9515066626861146 2.145177104459653
| 20> H 2.8789374710820024 -1.9313919057859257 -0.15503643159587666
| 21> H 3.817560065502714 -0.5559148123809508 -0.7559095499426225
| 22> H -1.0797579240894708 -0.10563910895194625 -1.3645516319632758
| 23> H -0.8679997610482643 0.5833246783742082 1.6037146037009793
| 24> H -1.5360885578735783 1.8494677922410554 0.5961672681954867
| 25> H -3.2606039056537783 0.5100560944800441 1.6561015568580455
| 26> H -3.749112326141912 -1.8018617665279704 1.055248009785938
| 27> H -2.359624438368202 -1.8770512887808197 -0.031926090945944646
| 28> H -2.114943786962498 -1.7002154313503692 1.719287717596467
| 29> H -3.332859940010656 0.11431366334052133 -1.3785456098490367
| 30> H -4.709406030304235 0.16761305958712688 -0.2730466222286415
| 31> H -3.728871839907376 1.6169174001161588 -0.525218740711475
| 32> H -0.02477186670666873 2.214451558814731 -1.4544299757302535
| 33> *
| 34>
| 35>                          ****END OF INPUT****

CARTESIAN COORDINATES (ANGSTROEM)
---------------------------------
  C      4.518652    0.143742    1.726220
  C      3.430391   -0.550911    1.368337
  C      3.036123   -0.852279   -0.049247
  N      1.799749   -0.153349   -0.351905
  C      0.565382   -0.697763   -0.086175
  O      0.354631   -1.796767    0.410399
  C     -0.523422    0.296773   -0.514971
  C     -1.391975    0.761839    0.655148
  C     -2.791681    0.118444    0.743307
  C     -2.745245   -1.401778    0.875426
  C     -3.686321    0.526983   -0.428812
  N      0.311644    1.368049   -1.009973
  C      1.655576    1.080846   -0.917015
  S      2.806547    2.144106   -1.455778
  H      4.746984    0.317703    2.773464
  H      5.198992    0.561800    0.989929
  H      2.781516   -0.951507    2.145177
  H      2.878937   -1.931392   -0.155036
  H      3.817560   -0.555915   -0.755910
  H     -1.079758   -0.105639   -1.364552
  H     -0.868000    0.583325    1.603715
  H     -1.536089    1.849468    0.596167
  H     -3.260604    0.510056    1.656102
  H     -3.749112   -1.801862    1.055248
  H     -2.359624   -1.877051   -0.031926
  H     -2.114944   -1.700215    1.719288
  H     -3.332860    0.114314   -1.378546
  H     -4.709406    0.167613   -0.273047
  H     -3.728872    1.616917   -0.525219
  H     -0.024772    2.214452   -1.454430

 Total Charge           Charge          ....    0
 Multiplicity           Mult            ....    1
 Number of Electrons    NEL             ....  114
 Basis Dimension        Dim             ....  280

ORBITAL ENERGIES
----------------

  NO   OCC          E(Eh)            E(eV)
   0   2.0000     -91.859701     -2499.6295
   1   2.0000     -20.555225      -559.3361
   2   2.0000     -15.640747      -425.6064
   3   2.0000     -15.610093      -424.7722
   4   2.0000     -11.389603      -309.9268
   5   2.0000     -11.388633      -309.9005
   6   2.0000     -11.308132      -307.7099
   7   2.0000     -11.292318      -307.2796
   8   2.0000     -11.252242      -306.1891
   9   2.0000     -11.244204      -305.9703
  10   2.0000     -11.242077      -305.9125
  11   2.0000     -11.239930      -305.8540
  12   2.0000     -11.232375      -305.6485
  13   2.0000     -11.218957      -305.2833
  14   2.0000      -8.896889      -242.0966
  15   2.0000      -6.585517      -179.2010
  16   2.0000      -6.582318      -179.1140
  17   2.0000      -6.581311      -179.0866
  18   2.0000      -1.412798       -38.4442
  19   2.0000      -1.342660       -36.5356
  20   2.0000      -1.232132       -33.5280
  21   2.0000      -1.104372       -30.0515
  22   2.0000      -1.067551       -29.0496
  23   2.0000      -1.048577       -28.5332
  24   2.0000      -0.971655       -26.4401
  25   2.0000      -0.965353       -26.2686
  26   2.0000      -0.927797       -25.2466
  27   2.0000      -0.892976       -24.2991
  28   2.0000      -0.848745       -23.0955
  29   2.0000      -0.814220       -22.1560
  30   2.0000      -0.774086       -21.0640
  31   2.0000      -0.759707       -20.6727
  32   2.0000      -0.710935       -19.3455
  33   2.0000      -0.700062       -19.0497
  34   2.0000      -0.679073       -18.4785
  35   2.0000      -0.660362       -17.9694
  36   2.0000      -0.646321       -17.5873
  37   2.0000      -0.635440       -17.2912
  38   2.0000      -0.619465       -16.8565
  39   2.0000      -0.604009       -16.4359
  40   2.0000      -0.601634       -16.3713
  41   2.0000      -0.589098       -16.0302
  42   2.0000      -0.567098       -15.4315
  43   2.0000      -0.545607       -14.8467
  44   2.0000      -0.541204       -14.7269
  45   2.0000      -0.538986       -14.6666
  46   2.0000      -0.524924       -14.2839
  47   2.0000      -0.522043       -14.2055
  48   2.0000      -0.509274       -13.8580
  49   2.0000      -0.477548       -12.9947
  50   2.0000      -0.475829       -12.9480
  51   2.0000      -0.474748       -12.9186
  52   2.0000      -0.450913       -12.2700
  53   2.0000      -0.414213       -11.2713
  54   2.0000      -0.375386       -10.2148
  55   2.0000      -0.330982        -9.0065
  56   2.0000      -0.329442        -8.9646
  57   0.0000       0.107212         2.9174
  58   0.0000       0.152894         4.1604
  59   0.0000       0.157117         4.2754
  60   0.0000       0.178050         4.8450
  61   0.0000       0.189991         5.1699

MULLIKEN ATOMIC CHARGES
-----------------------
   0 C :   -0.045652
   1 C :   -0.186151
   2 C :    0.271581
   3 N :   -0.576840
   4 C :    0.472671
   5 O :   -0.409462
   6 C :    0.079124
   7 C :    0.062581
   8 C :   -0.263026
   9 C :    0.021534
  10 C :    0.005283
  11 N :   -0.448144
  12 C :    0.403011
  13 S :   -0.320603
  14 H :    0.060264
  15 H :    0.064047
  16 H :    0.062976
  17 H :    0.078100
  18 H :    0.070942
  19 H :    0.089290
  20 H :    0.048230
  21 H :    0.044589
  22 H :    0.038652
  23 H :    0.026835
  24 H :    0.033184
  25 H :    0.046089
  26 H :    0.020539
  27 H :    0.040757
  28 H :    0.026641
  29 H :    0.182959
Sum of atomic charges:   -0.0000000

LOEWDIN ATOMIC CHARGES
----------------------
   0 C :   -0.026950
   1 C :   -0.047125
   2 C :    0.094410
   3 N :   -0.082248
   4 C :    0.197772
   5 O :   -0.273276
   6 C :    0.043563
   7 C :   -0.006681
   8 C :   -0.035739
   9 C :   -0.028386
  10 C :   -0.031632
  11 N :   -0.072311
  12 C :    0.030212
  13 S :   -0.189239
  14 H :    0.025062
  15 H :    0.025515
  16 H :    0.026210
  17 H :    0.037227
  18 H :    0.032202
  19 H :    0.032581
  20 H :    0.025104
  21 H :    0.021213
  22 H :    0.017865
  23 H :    0.014468
  24 H :    0.014461
  25 H :    0.020953
  26 H :    0.010024
  27 H :    0.021334
  28 H :    0.012811
  29 H :    0.090600

  Mayer bond orders larger than 0.100000
B(  0-C ,  1-C ) :   2.0079 B(  0-C , 14-H ) :   0.9774 B(  0-C , 15-H ) :   0.9761
B(  1-C ,  2-C ) :   1.0073 B(  1-C , 16-H ) :   0.9778 B(  2-C ,  3-N ) :   0.8127
B(  2-C , 17-H ) :   0.9721 B(  2-C , 18-H ) :   0.9753 B(  3-N ,  4-C ) :   1.0655
B(  3-N , 12-C ) :   1.0598 B(  4-C ,  5-O ) :   1.9930 B(  4-C ,  6-C ) :   0.9615
B(  6-C ,  7-C ) :   0.9604 B(  6-C , 11-N ) :   0.8624 B(  6-C , 19-H ) :   0.9471
B(  7-C ,  8-C ) :   1.0188 B(  7-C , 20-H ) :   0.9646 B(  7-C , 21-H ) :   0.9832
B(  8-C ,  9-C ) :   1.0099 B(  8-C , 10-C ) :   1.0077 B(  8-C , 22-H ) :   0.9662
B(  9-C , 23-H ) :   0.9847 B(  9-C , 24-H ) :   0.9784 B(  9-C , 25-H ) :   0.9846
B( 10-C , 26-H ) :   0.9804 B( 10-C , 27-H ) :   0.9873 B( 10-C , 28-H ) :   0.9875
B( 11-N , 12-C ) :   1.1538 B( 11-N , 29-H ) :   0.9331 B( 12-C , 13-S ) :   1.5835

FINAL SINGLE POINT ENERGY      -968.747056466794

DIPOLE MOMENT
-------------
                                X             Y             Z
Electronic contribution:     15.92525       4.48918      -6.91541
Nuclear contribution   :    -17.03485      -4.48072       7.08310
                        -----------------------------------------
Total Dipole Moment    :     -1.10960       0.00846       0.16769
                        -----------------------------------------
Magnitude (a.u.)       :      1.12223
Magnitude (Debye)      :      2.85248

Rotational constants in cm-1:     0.033605     0.012154     0.009843
Rotational constants in MHz :  1007.455442   364.357653   295.076451

                             ****ORCA TERMINATED NORMALLY****
TOTAL RUN TIME: 0 days 0 hours 0 minutes 10 seconds 671 msec
