                         Program Version 5.0.3 -  RELEASE  -
|  1> !RHF def2-SVP TightSCF PAL16
|  2> *xyz 0 1
|  3> O -0.5174302714121991 0.6711377661210319 1.0737978637700223
|  4> C -1.0090423649397668 0.3247531027778426 0.006690049653233458
|  5> O -0.359608639690384 0.34549098001332895 -1.1936201385273972
|  6> C 1.0095740642673847 0.7899848436951741 -1.1489805309602998
|  7> C 1.9323155019504783 -0.3562872721270643 -0.6981231458601516
|  8> N 3.3804041083502403 -0.07543251889234465 -0.8451000349894434
|  9> C 3.797554915636571 0.9801327007157403 0.09224459041573685
| 10> C 5.267907924704376 1.408572696740024 0.015286935367538963
| 11> C 6.225787824590668 0.38458335374227387 0.6087988865842462
| 12> C 6.624068857828556 -0.7330941286452608 -0.344959039300618
| 13> C 5.538931976767184 -1.246743234932686 -1.2837325653846794
| 14> C 4.136366400896878 -1.3302163598966488 -0.6817387486737759
| 15> C -2.4255495021183795 -0.2250562132866965 -0.1719729271167947
| 16> C -2.3841450497630574 -1.7288004316266459 0.03478544474756778
| 17> C -2.0006789320887535 -2.3869081614087118 1.2536582916653956
| 18> C -2.052176435264008 -3.7592387567543737 1.1566850528375228
| 19> S -2.5564462446902008 -4.2728291696056235 -0.39141749950246063
| 20> C -2.7063128071248355 -2.659792158617149 -0.9373498780162205
| 21> C -3.4360342694140282 0.5012840647396414 0.7632055310650722
| 22> C -4.840745029402823 -0.1446791745667514 0.68841419089583
| 23> C -5.936453201405113 0.8178828614933052 1.1289428202599197
| 24> C -6.014350280687002 2.036970105401275 0.21076423530994454
| 25> C -4.672218160941456 2.399192938448178 -0.42456348284075357
| 26> C -3.501143542012409 2.0230893412684936 0.4758460343709872
| 27> H 1.0919850579505521 1.6777184678209889 -0.5126831548437438
| 28> H 1.2697244248843582 1.0976040837721792 -2.167867172303049
| 29> H 1.6970240934735714 -0.6521644300275566 0.332432241945862
| 30> H 1.6637732991373437 -1.2227811794550807 -1.3179545196186422
| 31> H 3.55532983462018 0.6949434835361055 1.1247295945712439
| 32> H 3.220811372802325 1.886657050617652 -0.12306351552393467
| 33> H 5.36644374604512 2.3334520243381918 0.5986684105904214
| 34> H 5.548367528621518 1.6655245795156879 -1.0131754181568429
| 35> H 5.792655758575191 -0.04518759450925097 1.520608459373883
| 36> H 7.1424984094294155 0.8964339807930041 0.9279324961608794
| 37> H 7.005888233878789 -1.570022304685972 0.2536504539999296
| 38> H 7.471206414010998 -0.3981702052511231 -0.9572110190252601
| 39> H 5.8383077105404615 -2.247156842950442 -1.6229234645385626
| 40> H 5.516708968564928 -0.6301757669417315 -2.19219780129793
| 41> H 4.159973597380617 -1.6630377380805688 0.3635063710031856
| 42> H 3.6249530393387737 -2.1225916919436667 -1.2444614685654019
| 43> H -2.7309865282538444 -0.014958328161805829 -1.2071562393147877
| 44> H -1.6990013643629078 -1.8729059488644457 2.1601007486883206
| 45> H -1.8165457224208084 -4.4860661019415335 1.9219498267205228
| 46> H -3.026906571510532 -2.4718451715029435 -1.9534690516781466
| 47> H -3.0793514254655707 0.3961573251719899 1.798038534398875
| 48> H -4.869395194560823 -1.0378692862283085 1.323674898727045
| 49> H -5.056126724228469 -0.4778688701753662 -0.33504612966979924
| 50> H -6.906550588182585 0.30836530246455246 1.1454300182214152
| 51> H -5.738142919272171 1.1450057652292274 2.1573633983044536
| 52> H -6.396410472002759 2.888140007353151 0.787278606696763
| 53> H -6.7441927901021 1.8567018152186254 -0.5877753422553749
| 54> H -4.650902775653428 3.472456587931762 -0.6454406095908948
| 55> H -4.569813592067222 1.881554056124025 -1.386479654355516
| 56> H -2.570070847010052 2.392612380305922 0.03392659917816638
| 57> H -3.611830818199723 2.555477375731273 1.4300519663866236
| 58> *
| 59>
| 60>                          ****END OF INPUT****

CARTESIAN COORDINATES (ANGSTROEM)
---------------------------------
  O     -0.517430    0.671138    1.073798
  C     -1.009042    0.324753    0.006690
  O     -0.359609    0.345491   -1.193620
  C      1.009574    0.789985   -1.148981
  C      1.932316   -0.356287   -0.698123
  N      3.380404   -0.075433   -0.845100
  C      3.797555    0.980133    0.092245
  C      5.267908    1.408573    0.015287
  C      6.225788    0.384583    0.608799
  C      6.624069   -0.733094   -0.344959
  C      5.538932   -1.246743   -1.283733
  C      4.136366   -1.330216   -0.681739
  C     -2.425550   -0.225056   -0.171973
  C     -2.384145   -1.728800    0.034785
  C     -2.000679   -2.386908    1.253658
  C     -2.052176   -3.759239    1.156685
  S     -2.556446   -4.272829   -0.391417
  C     -2.706313   -2.659792   -0.937350
  C     -3.436034    0.501284    0.763206
  C     -4.840745   -0.144679    0.688414
  C     -5.936453    0.817883    1.128943
  C     -6.014350    2.036970    0.210764
  C     -4.672218    2.399193   -0.424563
  C     -3.501144    2.023089    0.475846
  H      1.091985    1.677718   -0.512683
  H      1.269724    1.097604   -2.167867
  H      1.697024   -0.652164    0.332432
  H      1.663773   -1.222781   -1.317955
  H      3.555330    0.694943    1.124730
  H      3.220811    1.886657   -0.123064
  H      5.366444    2.333452    0.598668
  H      5.548368    1.665525   -1.013175
  H      5.792656   -0.045188    1.520608
  H      7.142498    0.896434    0.927932
  H      7.005888   -1.570022    0.253650
  H      7.471206   -0.398170   -0.957211
  H      5.838308   -2.247157   -1.622923
  H      5.516709   -0.630176   -2.192198
  H      4.159974   -1.663038    0.363506
  H      3.624953   -2.122592   -1.244461
  H     -2.730987   -0.014958   -1.207156
  H     -1.699001   -1.872906    2.160101
  H     -1.816546   -4.486066    1.921950
  H     -3.026907   -2.471845   -1.953469
  H     -3.079351    0.396157    1.798039
  H     -4.869395   -1.037869    1.323675
  H     -5.056127   -0.477869   -0.335046
  H     -6.906551    0.308365    1.145430
  H     -5.738143    1.145006    2.157363
  H     -6.396410    2.888140    0.787279
  H     -6.744193    1.856702   -0.587775
  H     -4.650903    3.472457   -0.645441
  H     -4.569814    1.881554   -1.386480
  H     -2.570071    2.392612    0.033927
  H     -3.611831    2.555477    1.430052

 Total Charge           Charge          ....    0
 Multiplicity           Mult            ....    1
 Number of Electrons    NEL             ....  190
 Basis Dimension        Dim             ....  495

ORBITAL ENERGIES
----------------

  NO   OCC          E(Eh)            E(eV)
   0   2.0000     -91.948967     -2502.0586
   1   2.0000     -20.599234      -560.5336
   2   2.0000     -20.544462      -559.0432
   3   2.0000     -15.544280      -422.9814
   4   2.0000     -11.389125      -309.9139
   5   2.0000     -11.288763      -307.1828
   6   2.0000     -11.265377      -306.5465
   7   2.0000     -11.265057      -306.5378
   8   2.0000     -11.258259      -306.3528
   9   2.0000     -11.254828      -306.2594
  10   2.0000     -11.251391      -306.1659
  11   2.0000     -11.247501      -306.0601
  12   2.0000     -11.247484      -306.0596
  13   2.0000     -11.243519      -305.9517
  14   2.0000     -11.235138      -305.7237
  15   2.0000     -11.222196      -305.3715
  16   2.0000     -11.220700      -305.3308
  17   2.0000     -11.220011      -305.3120
  18   2.0000     -11.219779      -305.3057
  19   2.0000     -11.218721      -305.2769
  20   2.0000     -11.217061      -305.2318
  21   2.0000     -11.216093      -305.2054
  22   2.0000     -11.214831      -305.1711
  23   2.0000     -11.214086      -305.1508
  24   2.0000      -8.986016      -244.5219
  25   2.0000      -6.673554      -181.5966
  26   2.0000      -6.672461      -181.5669
  27   2.0000      -6.670762      -181.5207
  28   2.0000      -1.436345       -39.0849
  29   2.0000      -1.337966       -36.4079
  30   2.0000      -1.210606       -32.9423
  31   2.0000      -1.174277       -31.9537
  32   2.0000      -1.120264       -30.4839
  33   2.0000      -1.074018       -29.2255
  34   2.0000      -1.063069       -28.9276
  35   2.0000      -1.024864       -27.8880
  36   2.0000      -1.002822       -27.2882
  37   2.0000      -0.995354       -27.0850
  38   2.0000      -0.984244       -26.7826
  39   2.0000      -0.976532       -26.5728
  40   2.0000      -0.934250       -25.4222
  41   2.0000      -0.903919       -24.5969
  42   2.0000      -0.887271       -24.1439
  43   2.0000      -0.847244       -23.0547
  44   2.0000      -0.837477       -22.7889
  45   2.0000      -0.809523       -22.0282
  46   2.0000      -0.772834       -21.0299
  47   2.0000      -0.769591       -20.9416
  48   2.0000      -0.761281       -20.7155
  49   2.0000      -0.743573       -20.2337
  50   2.0000      -0.737587       -20.0708
  51   2.0000      -0.712695       -19.3934
  52   2.0000      -0.698267       -19.0008
  53   2.0000      -0.695983       -18.9387
  54   2.0000      -0.677839       -18.4449
  55   2.0000      -0.663991       -18.0681
  56   2.0000      -0.655858       -17.8468
  57   2.0000      -0.642651       -17.4874
  58   2.0000      -0.640269       -17.4226
  59   2.0000      -0.628167       -17.0933
  60   2.0000      -0.624358       -16.9897
  61   2.0000      -0.614437       -16.7197
  62   2.0000      -0.599227       -16.3058
  63   2.0000      -0.582799       -15.8588
  64   2.0000      -0.580959       -15.8087
  65   2.0000      -0.565581       -15.3902
  66   2.0000      -0.563798       -15.3417
  67   2.0000      -0.562372       -15.3029
  68   2.0000      -0.556755       -15.1501
  69   2.0000      -0.543938       -14.8013
  70   2.0000      -0.540484       -14.7073
  71   2.0000      -0.537036       -14.6135
  72   2.0000      -0.530600       -14.4383
  73   2.0000      -0.527702       -14.3595
  74   2.0000      -0.522856       -14.2276
  75   2.0000      -0.511983       -13.9318
  76   2.0000      -0.507186       -13.8012
  77   2.0000      -0.506401       -13.7799
  78   2.0000      -0.503033       -13.6882
  79   2.0000      -0.498320       -13.5600
  80   2.0000      -0.489168       -13.3109
  81   2.0000      -0.478729       -13.0269
  82   2.0000      -0.474098       -12.9009
  83   2.0000      -0.472837       -12.8665
  84   2.0000      -0.457550       -12.4506
  85   2.0000      -0.448502       -12.2044
  86   2.0000      -0.445406       -12.1201
  87   2.0000      -0.442517       -12.0415
  88   2.0000      -0.440734       -11.9930
  89   2.0000      -0.436456       -11.8766
  90   2.0000      -0.431273       -11.7355
  91   2.0000      -0.428298       -11.6546
  92   2.0000      -0.355889        -9.6842
  93   2.0000      -0.343363        -9.3434
  94   2.0000      -0.327541        -8.9129
  95   0.0000       0.115471         3.1421
  96   0.0000       0.163548         4.4504
  97   0.0000       0.165079         4.4920
  98   0.0000       0.170944         4.6516
  99   0.0000       0.180264         4.9052

MULLIKEN ATOMIC CHARGES
-----------------------
   0 O :   -0.430340
   1 C :    0.571772
   2 O :   -0.561945
   3 C :    0.301581
   4 C :    0.111314
   5 N :   -0.655957
   6 C :    0.169461
   7 C :   -0.044058
   8 C :   -0.063238
   9 C :   -0.036413
  10 C :   -0.037627
  11 C :    0.163512
  12 C :    0.003180
  13 C :   -0.167781
  14 C :   -0.002180
  15 C :   -0.104394
  16 S :    0.062873
  17 C :   -0.088531
  18 C :   -0.164421
  19 C :    0.010308
  20 C :   -0.034869
  21 C :   -0.033115
  22 C :   -0.045468
  23 C :   -0.013808
  24 H :    0.052181
  25 H :    0.044432
  26 H :    0.032235
  27 H :    0.040030
  28 H :    0.008644
  29 H :    0.027228
  30 H :    0.030525
  31 H :    0.034668
  32 H :    0.022645
  33 H :    0.030289
  34 H :    0.023180
  35 H :    0.025304
  36 H :    0.028158
  37 H :    0.036070
  38 H :    0.006664
  39 H :    0.027262
  40 H :    0.052481
  41 H :    0.063128
  42 H :    0.079685
  43 H :    0.071760
  44 H :    0.051941
  45 H :    0.045543
  46 H :    0.018778
  47 H :    0.033248
  48 H :    0.024448
  49 H :    0.028668
  50 H :    0.027305
  51 H :    0.034231
  52 H :    0.019190
  53 H :    0.036517
  54 H :    0.033704
Sum of atomic charges:   -0.0000000

LOEWDIN ATOMIC CHARGES
----------------------
   0 O :   -0.281305
   1 C :    0.238056
   2 O :   -0.188903
   3 C :    0.135887
   4 C :    0.052459
   5 N :   -0.204869
   6 C :    0.062408
   7 C :   -0.024430
   8 C :   -0.028713
   9 C :   -0.025172
  10 C :   -0.030191
  11 C :    0.063995
  12 C :   -0.026306
  13 C :   -0.064242
  14 C :   -0.058251
  15 C :   -0.184231
  16 S :    0.410100
  17 C :   -0.186441
  18 C :   -0.013751
  19 C :   -0.014898
  20 C :   -0.021653
  21 C :   -0.023150
  22 C :   -0.024218
  23 C :   -0.014714
  24 H :    0.012223
  25 H :    0.019624
  26 H :    0.001485
  27 H :    0.015959
  28 H :   -0.005267
  29 H :    0.009099
  30 H :    0.019620
  31 H :    0.017014
  32 H :    0.009749
  33 H :    0.015631
  34 H :    0.011333
  35 H :    0.012593
  36 H :    0.016799
  37 H :    0.017382
  38 H :   -0.005758
  39 H :    0.014482
  40 H :    0.031892
  41 H :    0.033250
  42 H :    0.025197
  43 H :    0.022959
  44 H :    0.019299
  45 H :    0.019646
  46 H :    0.008978
  47 H :    0.016607
  48 H :    0.011270
  49 H :    0.013067
  50 H :    0.012753
  51 H :    0.016563
  52 H :    0.007487
  53 H :    0.014094
  54 H :    0.017508

  Mayer bond orders larger than 0.100000
B(  0-O ,  1-C ) :   1.9320 B(  1-C ,  2-O ) :   1.0819 B(  1-C , 12-C ) :   0.9271
B(  2-O ,  3-C ) :   0.8002 B(  3-C ,  4-C ) :   1.0457 B(  3-C , 24-H ) :   0.9768
B(  3-C , 25-H ) :   0.9736 B(  4-C ,  5-N ) :   0.9458 B(  4-C , 26-H ) :   0.9708
B(  4-C , 27-H ) :   0.9717 B(  5-N ,  6-C ) :   0.9141 B(  5-N , 11-C ) :   0.9300
B(  6-C ,  7-C ) :   1.0461 B(  6-C , 28-H ) :   0.9665 B(  6-C , 29-H ) :   0.9784
B(  7-C ,  8-C ) :   1.0313 B(  7-C , 30-H ) :   0.9752 B(  7-C , 31-H ) :   0.9657
B(  8-C ,  9-C ) :   1.0233 B(  8-C , 32-H ) :   0.9717 B(  8-C , 33-H ) :   0.9782
B(  9-C , 10-C ) :   1.0315 B(  9-C , 34-H ) :   0.9767 B(  9-C , 35-H ) :   0.9773
B( 10-C , 11-C ) :   1.0345 B( 10-C , 36-H ) :   0.9796 B( 10-C , 37-H ) :   0.9651
B( 11-C , 38-H ) :   0.9652 B( 11-C , 39-H ) :   0.9809 B( 12-C , 13-C ) :   0.9891
B( 12-C , 18-C ) :   0.9945 B( 12-C , 40-H ) :   0.9573 B( 13-C , 14-C ) :   1.2289
B( 13-C , 17-C ) :   1.6521 B( 14-C , 15-C ) :   1.6320 B( 14-C , 41-H ) :   0.9980
B( 15-C , 16-S ) :   1.1583 B( 15-C , 42-H ) :   0.9783 B( 16-S , 17-C ) :   1.1613
B( 17-C , 43-H ) :   0.9769 B( 18-C , 19-C ) :   1.0045 B( 18-C , 23-C ) :   1.0036
B( 18-C , 44-H ) :   0.9450 B( 19-C , 20-C ) :   1.0686 B( 19-C , 45-H ) :   0.9670
B( 19-C , 46-H ) :   0.9648 B( 20-C , 21-C ) :   1.0204 B( 20-C , 47-H ) :   0.9773
B( 20-C , 48-H ) :   0.9668 B( 21-C , 22-C ) :   1.0231 B( 21-C , 49-H ) :   0.9770
B( 21-C , 50-H ) :   0.9764 B( 22-C , 23-C ) :   1.0457 B( 22-C , 51-H ) :   0.9766
B( 22-C , 52-H ) :   0.9677 B( 23-C , 53-H ) :   0.9784 B( 23-C , 54-H ) :   0.9691

FINAL SINGLE POINT ENERGY     -1376.246496225974

DIPOLE MOMENT
-------------
                                X             Y             Z
Electronic contribution:    -16.22927     -18.56677      -2.12957
Nuclear contribution   :     16.12402      18.50379       1.97356
                        -----------------------------------------
Total Dipole Moment    :     -0.10525      -0.06299      -0.15601
                        -----------------------------------------
Magnitude (a.u.)       :      0.19846
Magnitude (Debye)      :      0.50444

Rotational constants in cm-1:     0.011369     0.003108     0.002599
Rotational constants in MHz :   340.821715    93.167315    77.925740

                             ****ORCA TERMINATED NORMALLY****
TOTAL RUN TIME: 0 days 0 hours 0 minutes 39 seconds 380 msec
