                         Program Version 5.0.3 -  RELEASE  -
|  1> !RHF def2-SVP TightSCF PAL16
|  2> *xyz 0 1
|  3> C -4.896187355267615 -3.1301251165025774 1.4631825291609566
|  4> O -5.2342881220457205 -1.8283471780628715 1.0041185389505807
|  5> C -4.227785502212864 -0.8991728319274099 0.943356814844543
|  6> C -2.87058818387163 -1.1797137371737227 1.120650480320614
|  7> C -1.9113740877371452 -0.15879922390072354 1.0336768689700686
|  8> C -0.4810699821582876 -0.4243372385918105 1.237275099115802
|  9> C 0.15385567826831692 -1.4910734413551008 0.7281875437930235
| 10> C 1.5877618843496855 -1.7124187665995354 1.0209202713145376
| 11> O 1.8962608578093152 -2.702810555958929 1.678472823803447
| 12> N 2.495998758812607 -0.7924666825716666 0.5156796053789158
| 13> C 3.9457899888992025 -0.9235535227533844 0.9537104988844128
| 14> C 5.0251107836914475 -1.449382403060739 -0.09515388157856933
| 15> C 5.895154818206453 -0.4156696517041989 -0.9451573997927908
| 16> C 5.4237636825578885 0.07459001198204832 -2.389765532454058
| 17> C 4.077168739758656 0.8946658099358965 -2.488083243933885
| 18> C 3.3127226610322413 0.2913374759254031 -1.3772490453184971
| 19> C 2.11850224171606 0.2700061257159722 -0.506159455301226
| 20> C -2.3233478306792104 1.1613504623382196 0.7974789862596792
| 21> C -3.675098338190954 1.4643305082390583 0.6161460287346517
| 22> O -4.169825985747409 2.7186641951141013 0.3672850227241833
| 23> C -3.2784460798098984 3.814978508711702 0.5152311752381322
| 24> C -4.616134804590416 0.4225226852734775 0.6677628680652139
| 25> O -5.955246287307517 0.7182258986875385 0.5300354896823736
| 26> C -6.335951461751851 0.6032118394027792 -0.8396629572089337
| 27> H -4.241620767596389 -3.6394165545851096 0.7484063889867624
| 28> H -4.444446036772866 -3.0962322723006244 2.4602900711524622
| 29> H -5.821614916156295 -3.7095397492150495 1.5369056178115679
| 30> H -2.538458372969205 -2.1895690543438278 1.3388045749709538
| 31> H 0.06412540140048667 0.30790943462117576 1.8292646819767615
| 32> H -0.33380247526669543 -2.274397324099324 0.16267627140498508
| 33> H 3.969825968949063 -1.6228531246303257 1.7979804538714643
| 34> H 4.2543006386484015 0.04360661488543649 1.3695472289571853
| 35> H 4.594727002440392 -2.2190109879793005 -0.7460552228202154
| 36> H 5.767618576313421 -1.9753773267117516 0.5226094364222804
| 37> H 6.861670737136476 -0.9096551130119056 -1.1167905683600399
| 38> H 6.11870595545717 0.4604318236076802 -0.32333078687123684
| 39> H 6.2251125371269875 0.6761730968818633 -2.835164425671035
| 40> H 5.32375647781515 -0.8211355436778144 -3.017210713200725
| 41> H 4.2649876040823615 1.9617953351593274 -2.329448368226597
| 42> H 3.60564626663449 0.7594174356021165 -3.4652994210497923
| 43> H 3.9747932856952986 0.6890080392125312 -0.6078994181541759
| 44> H 3.3707619059744927 -0.7690174007035101 -1.6508667454904646
| 45> H 1.2166426381354898 -0.007519414353723387 -1.056128540116464
| 46> H 1.958081780827642 1.210790322701447 0.02954632442091401
| 47> H -1.5681801402488371 1.9389700013884053 0.7464653192833716
| 48> H -3.855493806727112 4.735401654365867 0.38405686425207003
| 49> H -2.503426733549482 3.796153727197166 -0.25779521121123383
| 50> H -2.8376793806352048 3.8383793439131835 1.5175025557641528
| 51> H -5.783429090761845 1.3096663539011542 -1.4688001170694551
| 52> H -7.399822358731647 0.8482202033231206 -0.9125361084807576
| 53> H -6.19952877095325 -0.41916606837279685 -1.2086692722063281
| 54> *
| 55>
| 56>                          ****END OF INPUT****

CARTESIAN COORDINATES (ANGSTROEM)
---------------------------------
  C     -4.896187   -3.130125    1.463183
  O     -5.234288   -1.828347    1.004119
  C     -4.227786   -0.899173    0.943357
  C     -2.870588   -1.179714    1.120650
  C     -1.911374   -0.158799    1.033677
  C     -0.481070   -0.424337    1.237275
  C      0.153856   -1.491073    0.728188
  C      1.587762   -1.712419    1.020920
  O      1.896261   -2.702811    1.678473
  N      2.495999   -0.792467    0.515680
  C      3.945790   -0.923554    0.953710
  C      5.025111   -1.449382   -0.095154
  C      5.895155   -0.415670   -0.945157
  C      5.423764    0.074590   -2.389766
  C      4.077169    0.894666   -2.488083
  C      3.312723    0.291337   -1.377249
  C      2.118502    0.270006   -0.506159
  C     -2.323348    1.161350    0.797479
  C     -3.675098    1.464331    0.616146
  O     -4.169826    2.718664    0.367285
  C     -3.278446    3.814979    0.515231
  C     -4.616135    0.422523    0.667763
  O     -5.955246    0.718226    0.530035
  C     -6.335951    0.603212   -0.839663
  H     -4.241621   -3.639417    0.748406
  H     -4.444446   -3.096232    2.460290
  H     -5.821615   -3.709540    1.536906
  H     -2.538458   -2.189569    1.338805
  H      0.064125    0.307909    1.829265
  H     -0.333802   -2.274397    0.162676
  H      3.969826   -1.622853    1.797980
  H      4.254301    0.043607    1.369547
  H      4.594727   -2.219011   -0.746055
  H      5.767619   -1.975377    0.522609
  H      6.861671   -0.909655   -1.116791
  H      6.118706    0.460432   -0.323331
  H      6.225113    0.676173   -2.835164
  H      5.323756   -0.821136   -3.017211
  H      4.264988    1.961795   -2.329448
  H      3.605646    0.759417   -3.465299
  H      3.974793    0.689008   -0.607899
  H      3.370762   -0.769017   -1.650867
  H      1.216643   -0.007519   -1.056129
  H      1.958082    1.210790    0.029546
  H     -1.568180    1.938970    0.746465
  H     -3.855494    4.735402    0.384057
  H     -2.503427    3.796154   -0.257795
  H     -2.837679    3.838379    1.517503
  H     -5.783429    1.309666   -1.468800
  H     -7.399822    0.848220   -0.912536
  H     -6.199529   -0.419166   -1.208669

 Total Charge           Charge          ....    0
 Multiplicity           Mult            ....    1
 Number of Electrons    NEL             ....  180
 Basis Dimension        Dim             ....  471

ORBITAL ENERGIES
----------------

  NO   OCC          E(Eh)            E(eV)
   0   2.0000     -20.581037      -560.0385
   1   2.0000     -20.579413      -559.9943
   2   2.0000     -20.550831      -559.2165
   3   2.0000     -20.503654      -557.9328
   4   2.0000     -15.585189      -424.0946
   5   2.0000     -11.348864      -308.8183
   6   2.0000     -11.309509      -307.7474
   7   2.0000     -11.308737      -307.7264
   8   2.0000     -11.296495      -307.3932
   9   2.0000     -11.292911      -307.2957
  10   2.0000     -11.281886      -306.9957
  11   2.0000     -11.281249      -306.9784
  12   2.0000     -11.273332      -306.7630
  13   2.0000     -11.270064      -306.6740
  14   2.0000     -11.258324      -306.3546
  15   2.0000     -11.257615      -306.3353
  16   2.0000     -11.247529      -306.0608
  17   2.0000     -11.241882      -305.9072
  18   2.0000     -11.239919      -305.8537
  19   2.0000     -11.239643      -305.8462
  20   2.0000     -11.238512      -305.8155
  21   2.0000     -11.237560      -305.7896
  22   2.0000     -11.236240      -305.7536
  23   2.0000     -11.218401      -305.2682
  24   2.0000      -1.400607       -38.1124
  25   2.0000      -1.390604       -37.8402
  26   2.0000      -1.356568       -36.9141
  27   2.0000      -1.351462       -36.7752
  28   2.0000      -1.215104       -33.0647
  29   2.0000      -1.148318       -31.2473
  30   2.0000      -1.097194       -29.8562
  31   2.0000      -1.074506       -29.2388
  32   2.0000      -1.035115       -28.1669
  33   2.0000      -1.014377       -27.6026
  34   2.0000      -1.008495       -27.4425
  35   2.0000      -0.974016       -26.5043
  36   2.0000      -0.948901       -25.8209
  37   2.0000      -0.939158       -25.5558
  38   2.0000      -0.931717       -25.3533
  39   2.0000      -0.911238       -24.7960
  40   2.0000      -0.867090       -23.5947
  41   2.0000      -0.837131       -22.7795
  42   2.0000      -0.809569       -22.0295
  43   2.0000      -0.806468       -21.9451
  44   2.0000      -0.787395       -21.4261
  45   2.0000      -0.767017       -20.8716
  46   2.0000      -0.732652       -19.9365
  47   2.0000      -0.719391       -19.5756
  48   2.0000      -0.711443       -19.3593
  49   2.0000      -0.694160       -18.8891
  50   2.0000      -0.682326       -18.5670
  51   2.0000      -0.677935       -18.4476
  52   2.0000      -0.665948       -18.1214
  53   2.0000      -0.663339       -18.0504
  54   2.0000      -0.655431       -17.8352
  55   2.0000      -0.644489       -17.5374
  56   2.0000      -0.637932       -17.3590
  57   2.0000      -0.630154       -17.1474
  58   2.0000      -0.623761       -16.9734
  59   2.0000      -0.615237       -16.7414
  60   2.0000      -0.610980       -16.6256
  61   2.0000      -0.608686       -16.5632
  62   2.0000      -0.601415       -16.3653
  63   2.0000      -0.585298       -15.9268
  64   2.0000      -0.573424       -15.6037
  65   2.0000      -0.569612       -15.4999
  66   2.0000      -0.567052       -15.4303
  67   2.0000      -0.550878       -14.9902
  68   2.0000      -0.547915       -14.9095
  69   2.0000      -0.537025       -14.6132
  70   2.0000      -0.531447       -14.4614
  71   2.0000      -0.528726       -14.3874
  72   2.0000      -0.523769       -14.2525
  73   2.0000      -0.510084       -13.8801
  74   2.0000      -0.507803       -13.8180
  75   2.0000      -0.504209       -13.7202
  76   2.0000      -0.498739       -13.5714
  77   2.0000      -0.485783       -13.2188
  78   2.0000      -0.480964       -13.0877
  79   2.0000      -0.474354       -12.9078
  80   2.0000      -0.465589       -12.6693
  81   2.0000      -0.463420       -12.6103
  82   2.0000      -0.456477       -12.4214
  83   2.0000      -0.435089       -11.8394
  84   2.0000      -0.423843       -11.5334
  85   2.0000      -0.412799       -11.2328
  86   2.0000      -0.384533       -10.4637
  87   2.0000      -0.368503       -10.0275
  88   2.0000      -0.321957        -8.7609
  89   2.0000      -0.302270        -8.2252
  90   0.0000       0.096161         2.6167
  91   0.0000       0.146535         3.9874
  92   0.0000       0.158205         4.3050
  93   0.0000       0.165700         4.5089
  94   0.0000       0.171661         4.6711

MULLIKEN ATOMIC CHARGES
-----------------------
   0 C :    0.224985
   1 O :   -0.550318
   2 C :    0.360619
   3 C :   -0.154487
   4 C :   -0.009670
   5 C :    0.007427
   6 C :   -0.111094
   7 C :    0.517706
   8 O :   -0.461489
   9 N :   -0.726922
  10 C :    0.200319
  11 C :   -0.085432
  12 C :   -0.080246
  13 C :   -0.074610
  14 C :    0.074763
  15 C :   -0.268084
  16 C :    0.332463
  17 C :   -0.155452
  18 C :    0.358964
  19 O :   -0.549247
  20 C :    0.227276
  21 C :    0.126630
  22 O :   -0.554667
  23 C :    0.269954
  24 H :    0.031763
  25 H :    0.039616
  26 H :    0.053063
  27 H :    0.034555
  28 H :    0.062003
  29 H :    0.076066
  30 H :    0.078611
  31 H :    0.033193
  32 H :    0.047625
  33 H :    0.037308
  34 H :    0.037882
  35 H :    0.031137
  36 H :    0.033959
  37 H :    0.037932
  38 H :    0.022576
  39 H :    0.027959
  40 H :    0.052780
  41 H :    0.052445
  42 H :    0.054284
  43 H :    0.019506
  44 H :    0.017641
  45 H :    0.053465
  46 H :    0.030077
  47 H :    0.035196
  48 H :    0.021508
  49 H :    0.035193
  50 H :    0.023266
Sum of atomic charges:   -0.0000000

LOEWDIN ATOMIC CHARGES
----------------------
   0 C :    0.134770
   1 O :   -0.190643
   2 C :    0.099679
   3 C :   -0.089635
   4 C :   -0.012206
   5 C :    0.008100
   6 C :   -0.035799
   7 C :    0.177694
   8 O :   -0.319354
   9 N :   -0.169532
  10 C :    0.089363
  11 C :   -0.030425
  12 C :   -0.027082
  13 C :   -0.016757
  14 C :   -0.002965
  15 C :   -0.063040
  16 C :    0.104976
  17 C :   -0.096741
  18 C :    0.098551
  19 O :   -0.190400
  20 C :    0.134401
  21 C :    0.019226
  22 O :   -0.204555
  23 C :    0.136384
  24 H :    0.006832
  25 H :    0.011447
  26 H :    0.022323
  27 H :    0.027754
  28 H :    0.032109
  29 H :    0.036923
  30 H :    0.032608
  31 H :    0.007984
  32 H :    0.018480
  33 H :    0.018472
  34 H :    0.018612
  35 H :    0.010052
  36 H :    0.015049
  37 H :    0.013724
  38 H :    0.008576
  39 H :    0.008672
  40 H :    0.027706
  41 H :    0.027760
  42 H :    0.014269
  43 H :    0.003388
  44 H :    0.022832
  45 H :    0.022493
  46 H :    0.005714
  47 H :    0.009568
  48 H :    0.004066
  49 H :    0.014032
  50 H :    0.004543

  Mayer bond orders larger than 0.100000
B(  0-C ,  1-O ) :   0.8666 B(  0-C , 24-H ) :   0.9853 B(  0-C , 25-H ) :   0.9851
B(  0-C , 26-H ) :   0.9922 B(  1-O ,  2-C ) :   1.0249 B(  2-C ,  3-C ) :   1.3358
B(  2-C , 21-C ) :   1.4035 B(  3-C ,  4-C ) :   1.3948 B(  3-C , 27-H ) :   1.0125
B(  4-C ,  5-C ) :   1.0168 B(  4-C , 17-C ) :   1.3720 B(  5-C ,  6-C ) :   1.9239
B(  5-C , 28-H ) :   0.9780 B(  6-C ,  7-C ) :   0.9777 B(  6-C , 29-H ) :   0.9678
B(  7-C ,  8-O ) :   1.9006 B(  7-C ,  9-N ) :   1.1064 B(  9-N , 10-C ) :   0.8522
B(  9-N , 16-C ) :   0.8592 B( 10-C , 11-C ) :   1.0190 B( 10-C , 30-H ) :   0.9730
B( 10-C , 31-H ) :   0.9764 B( 11-C , 12-C ) :   1.0056 B( 11-C , 32-H ) :   0.9705
B( 11-C , 33-H ) :   0.9789 B( 12-C , 13-C ) :   1.0248 B( 12-C , 34-H ) :   0.9756
B( 12-C , 35-H ) :   0.9673 B( 13-C , 14-C ) :   1.0086 B( 13-C , 36-H ) :   0.9764
B( 13-C , 37-H ) :   0.9693 B( 14-C , 15-C ) :   1.0046 B( 14-C , 38-H ) :   0.9776
B( 14-C , 39-H ) :   0.9738 B( 15-C , 16-C ) :   1.0132 B( 15-C , 40-H ) :   0.9626
B( 15-C , 41-H ) :   0.9712 B( 16-C , 42-H ) :   0.9711 B( 16-C , 43-H ) :   0.9799
B( 17-C , 18-C ) :   1.3447 B( 17-C , 44-H ) :   1.0143 B( 18-C , 19-O ) :   1.0250
B( 18-C , 21-C ) :   1.4064 B( 19-O , 20-C ) :   0.8699 B( 20-C , 45-H ) :   0.9924
B( 20-C , 46-H ) :   0.9850 B( 20-C , 47-H ) :   0.9846 B( 21-C , 22-O ) :   1.0071
B( 22-O , 23-C ) :   0.8599 B( 23-C , 48-H ) :   0.9842 B( 23-C , 49-H ) :   0.9938
B( 23-C , 50-H ) :   0.9847

FINAL SINGLE POINT ENERGY     -1088.129547789767

DIPOLE MOMENT
-------------
                                X             Y             Z
Electronic contribution:    -27.36898      -2.75605      11.57302
Nuclear contribution   :     28.46838       3.78043     -12.74765
                        -----------------------------------------
Total Dipole Moment    :      1.09940       1.02438      -1.17463
                        -----------------------------------------
Magnitude (a.u.)       :      1.90730
Magnitude (Debye)      :      4.84797

Rotational constants in cm-1:     0.014013     0.002994     0.002641
Rotational constants in MHz :   420.113488    89.760909    79.184039

                             ****ORCA TERMINATED NORMALLY****
TOTAL RUN TIME: 0 days 0 hours 0 minutes 33 seconds 408 msec
