                         Program Version 5.0.3 -  RELEASE  -
|  1> !RHF def2-SVP TightSCF PAL16
|  2> *xyz 0 1
|  3> C 2.06948360707484 -1.6553192795142377 -1.8321429744198148
|  4> C 2.9031618130256276 -0.8103009315966392 -0.9061525033012717
|  5> C 4.281740898996372 -1.0752130918446678 -0.8186924862960606
|  6> C 5.100936139192426 -0.32605582043832415 0.022752397325359604
|  7> C 4.552152543410617 0.6971546126454271 0.7857480467507385
|  8> C 3.18431168847798 0.9722814432767112 0.7100434367854975
|  9> C 2.346070126216814 0.2277847326518156 -0.12729956499270964
| 10> N 0.9647131077303506 0.483216855564646 -0.227898753725497
| 11> C 0.18159109761357245 1.3703442507162584 0.49488272392827654
| 12> O 0.5633626892529977 2.128267447359495 1.3809972259375607
| 13> C -1.2938738233819118 1.3527286025940786 -0.004348084120541457
| 14> C -2.217973003560911 2.0277468294082497 1.009459955880473
| 15> N -1.6542270950610294 -0.026050169227363525 -0.44423533237881213
| 16> C -1.8439280613467144 -0.9904823342369896 0.6475733513163
| 17> C -3.333480124849713 -1.0417718659734165 0.9349917040324742
| 18> C -4.003977106751081 -0.5631921939096706 -0.33996596900171
| 19> C -2.881399299409315 -0.07969448962545402 -1.2459902639027272
| 20> H 1.3014849596160492 -2.193646021070968 -1.267240272317128
| 21> H 2.6766062563850754 -2.402799968617801 -2.3540155633121858
| 22> H 1.5951138332578347 -1.029371446796978 -2.594870443778142
| 23> H 4.727738586910214 -1.8721920447015352 -1.409885274449522
| 24> H 6.164680961612573 -0.5398480454112009 0.08178126655073885
| 25> H 5.184331655987156 1.2879820974059097 1.443454796911742
| 26> H 2.8019898951669755 1.7843411825415652 1.320294938589763
| 27> H 0.4101256774916976 -0.10935765399781225 -0.8398645161160401
| 28> H -1.2733022689711229 1.9865479899862644 -0.9026493650730721
| 29> H -1.9049135829073123 3.064629171981173 1.178470235371891
| 30> H -2.1907479751459826 1.5270735842206733 1.982479996306243
| 31> H -3.252357357344294 2.060902125978596 0.6562485157368394
| 32> H -1.2538539511756661 -0.7752402102450768 1.544656060346439
| 33> H -1.5148575228018903 -1.9735398485384126 0.2879803384072079
| 34> H -3.596062326628474 -0.37910674200730987 1.7665746956659791
| 35> H -3.6577181835969563 -2.051449170728177 1.2072228360663986
| 36> H -4.566075906786602 -1.3739033855355973 -0.8161537421839828
| 37> H -4.7110562402266964 0.2431864534227031 -0.11727264740305215
| 38> H -3.129694886964347 0.8671253868865338 -1.7384487542782336
| 39> H -2.7300968205075513 -0.812778052622472 -2.047966174221359
| 40> *
| 41>
| 42>                          ****END OF INPUT****

CARTESIAN COORDINATES (ANGSTROEM)
---------------------------------
  C      2.069484   -1.655319   -1.832143
  C      2.903162   -0.810301   -0.906153
  C      4.281741   -1.075213   -0.818692
  C      5.100936   -0.326056    0.022752
  C      4.552153    0.697155    0.785748
  C      3.184312    0.972281    0.710043
  C      2.346070    0.227785   -0.127300
  N      0.964713    0.483217   -0.227899
  C      0.181591    1.370344    0.494883
  O      0.563363    2.128267    1.380997
  C     -1.293874    1.352729   -0.004348
  C     -2.217973    2.027747    1.009460
  N     -1.654227   -0.026050   -0.444235
  C     -1.843928   -0.990482    0.647573
  C     -3.333480   -1.041772    0.934992
  C     -4.003977   -0.563192   -0.339966
  C     -2.881399   -0.079694   -1.245990
  H      1.301485   -2.193646   -1.267240
  H      2.676606   -2.402800   -2.354016
  H      1.595114   -1.029371   -2.594870
  H      4.727739   -1.872192   -1.409885
  H      6.164681   -0.539848    0.081781
  H      5.184332    1.287982    1.443455
  H      2.801990    1.784341    1.320295
  H      0.410126   -0.109358   -0.839865
  H     -1.273302    1.986548   -0.902649
  H     -1.904914    3.064629    1.178470
  H     -2.190748    1.527074    1.982480
  H     -3.252357    2.060902    0.656249
  H     -1.253854   -0.775240    1.544656
  H     -1.514858   -1.973540    0.287980
  H     -3.596062   -0.379107    1.766575
  H     -3.657718   -2.051449    1.207223
  H     -4.566076   -1.373903   -0.816154
  H     -4.711056    0.243186   -0.117273
  H     -3.129695    0.867125   -1.738449
  H     -2.730097   -0.812778   -2.047966

 Total Charge           Charge          ....    0
 Multiplicity           Mult            ....    1
 Number of Electrons    NEL             ....  126
 Basis Dimension        Dim             ....  338

ORBITAL ENERGIES
----------------

  NO   OCC          E(Eh)            E(eV)
   0   2.0000     -20.522495      -558.4455
   1   2.0000     -15.589488      -424.2115
   2   2.0000     -15.564094      -423.5205
   3   2.0000     -11.359027      -309.0948
   4   2.0000     -11.282200      -307.0043
   5   2.0000     -11.279222      -306.9232
   6   2.0000     -11.262186      -306.4597
   7   2.0000     -11.262174      -306.4593
   8   2.0000     -11.238209      -305.8072
   9   2.0000     -11.235120      -305.7232
  10   2.0000     -11.231098      -305.6137
  11   2.0000     -11.229244      -305.5633
  12   2.0000     -11.228637      -305.5467
  13   2.0000     -11.228153      -305.5336
  14   2.0000     -11.226676      -305.4934
  15   2.0000     -11.222035      -305.3671
  16   2.0000     -11.219871      -305.3082
  17   2.0000      -1.364070       -37.1182
  18   2.0000      -1.250935       -34.0397
  19   2.0000      -1.226910       -33.3859
  20   2.0000      -1.126268       -30.6473
  21   2.0000      -1.069512       -29.1029
  22   2.0000      -1.031741       -28.0751
  23   2.0000      -1.003471       -27.3058
  24   2.0000      -0.990346       -26.9487
  25   2.0000      -0.987035       -26.8586
  26   2.0000      -0.925649       -25.1882
  27   2.0000      -0.887318       -24.1452
  28   2.0000      -0.835881       -22.7455
  29   2.0000      -0.804602       -21.8943
  30   2.0000      -0.794338       -21.6150
  31   2.0000      -0.786626       -21.4052
  32   2.0000      -0.751600       -20.4521
  33   2.0000      -0.715590       -19.4722
  34   2.0000      -0.697788       -18.9878
  35   2.0000      -0.676741       -18.4151
  36   2.0000      -0.664241       -18.0749
  37   2.0000      -0.648245       -17.6396
  38   2.0000      -0.634277       -17.2596
  39   2.0000      -0.621030       -16.8991
  40   2.0000      -0.600539       -16.3415
  41   2.0000      -0.595152       -16.1949
  42   2.0000      -0.591997       -16.1090
  43   2.0000      -0.582089       -15.8395
  44   2.0000      -0.566246       -15.4083
  45   2.0000      -0.562932       -15.3182
  46   2.0000      -0.556091       -15.1320
  47   2.0000      -0.550516       -14.9803
  48   2.0000      -0.545553       -14.8453
  49   2.0000      -0.543746       -14.7961
  50   2.0000      -0.521576       -14.1928
  51   2.0000      -0.501998       -13.6601
  52   2.0000      -0.500032       -13.6066
  53   2.0000      -0.496534       -13.5114
  54   2.0000      -0.494755       -13.4630
  55   2.0000      -0.486265       -13.2320
  56   2.0000      -0.484185       -13.1753
  57   2.0000      -0.465320       -12.6620
  58   2.0000      -0.433353       -11.7921
  59   2.0000      -0.416212       -11.3257
  60   2.0000      -0.373885       -10.1739
  61   2.0000      -0.323215        -8.7951
  62   2.0000      -0.296658        -8.0725
  63   0.0000       0.130065         3.5393
  64   0.0000       0.141610         3.8534
  65   0.0000       0.150125         4.0851
  66   0.0000       0.168725         4.5912
  67   0.0000       0.188349         5.1252

MULLIKEN ATOMIC CHARGES
-----------------------
   0 C :    0.074924
   1 C :   -0.223819
   2 C :   -0.033155
   3 C :   -0.044883
   4 C :   -0.014195
   5 C :   -0.092486
   6 C :    0.194192
   7 N :   -0.423402
   8 C :    0.473290
   9 O :   -0.438385
  10 C :   -0.011680
  11 C :    0.029618
  12 N :   -0.691562
  13 C :    0.150999
  14 C :   -0.062947
  15 C :   -0.096397
  16 C :    0.198271
  17 H :    0.046664
  18 H :    0.036042
  19 H :    0.046441
  20 H :    0.026422
  21 H :    0.031487
  22 H :    0.038286
  23 H :    0.073900
  24 H :    0.196853
  25 H :    0.066860
  26 H :    0.059898
  27 H :    0.040071
  28 H :    0.027902
  29 H :    0.056289
  30 H :    0.035638
  31 H :    0.039269
  32 H :    0.040907
  33 H :    0.039990
  34 H :    0.039017
  35 H :    0.037452
  36 H :    0.032229
Sum of atomic charges:    0.0000000

LOEWDIN ATOMIC CHARGES
----------------------
   0 C :   -0.026343
   1 C :   -0.059977
   2 C :   -0.024358
   3 C :   -0.046680
   4 C :   -0.019944
   5 C :   -0.040452
   6 C :    0.050956
   7 N :   -0.058037
   8 C :    0.191462
   9 O :   -0.295340
  10 C :    0.028333
  11 C :   -0.035590
  12 N :   -0.201251
  13 C :    0.058254
  14 C :   -0.031265
  15 C :   -0.033199
  16 C :    0.063099
  17 H :    0.022918
  18 H :    0.026353
  19 H :    0.023329
  20 H :    0.023501
  21 H :    0.022676
  22 H :    0.026695
  23 H :    0.037178
  24 H :    0.078880
  25 H :    0.030403
  26 H :    0.033157
  27 H :    0.021829
  28 H :    0.015172
  29 H :    0.018686
  30 H :    0.009579
  31 H :    0.015179
  32 H :    0.018312
  33 H :    0.017761
  34 H :    0.014793
  35 H :    0.014100
  36 H :    0.009833

  Mayer bond orders larger than 0.100000
B(  0-C ,  1-C ) :   0.9979 B(  0-C , 17-H ) :   0.9768 B(  0-C , 18-H ) :   0.9793
B(  0-C , 19-H ) :   0.9744 B(  1-C ,  2-C ) :   1.4588 B(  1-C ,  6-C ) :   1.3973
B(  2-C ,  3-C ) :   1.4146 B(  2-C , 20-H ) :   1.0017 B(  3-C ,  4-C ) :   1.4106
B(  3-C , 21-H ) :   1.0015 B(  4-C ,  5-C ) :   1.4061 B(  4-C , 22-H ) :   1.0005
B(  5-C ,  6-C ) :   1.4133 B(  5-C , 23-H ) :   0.9993 B(  6-C ,  7-N ) :   0.9974
B(  7-N ,  8-C ) :   1.1398 B(  7-N , 24-H ) :   0.8923 B(  8-C ,  9-O ) :   1.9404
B(  8-C , 10-C ) :   0.9374 B( 10-C , 11-C ) :   1.0399 B( 10-C , 12-N ) :   0.9216
B( 10-C , 25-H ) :   0.9493 B( 11-C , 26-H ) :   0.9693 B( 11-C , 27-H ) :   0.9751
B( 11-C , 28-H ) :   0.9823 B( 12-N , 13-C ) :   0.9025 B( 12-N , 16-C ) :   0.9213
B( 13-C , 14-C ) :   1.0380 B( 13-C , 29-H ) :   0.9807 B( 13-C , 30-H ) :   0.9764
B( 14-C , 15-C ) :   1.0313 B( 14-C , 31-H ) :   0.9713 B( 14-C , 32-H ) :   0.9765
B( 15-C , 16-C ) :   1.0351 B( 15-C , 33-H ) :   0.9752 B( 15-C , 34-H ) :   0.9743
B( 16-C , 35-H ) :   0.9803 B( 16-C , 36-H ) :   0.9786

FINAL SINGLE POINT ENERGY      -725.032824943567

DIPOLE MOMENT
-------------
                                X             Y             Z
Electronic contribution:     15.10723       4.76656       1.76662
Nuclear contribution   :    -16.36952      -5.64629      -2.60253
                        -----------------------------------------
Total Dipole Moment    :     -1.26229      -0.87973      -0.83591
                        -----------------------------------------
Magnitude (a.u.)       :      1.75102
Magnitude (Debye)      :      4.45073

Rotational constants in cm-1:     0.032837     0.008429     0.007249
Rotational constants in MHz :   984.418331   252.686114   217.323374

                             ****ORCA TERMINATED NORMALLY****
TOTAL RUN TIME: 0 days 0 hours 0 minutes 17 seconds 633 msec
