                         Program Version 5.0.3 -  RELEASE  -
|  1> !RHF def2-SVP TightSCF PAL16
|  2> *xyz 0 1
|  3> C -1.4545808636621131 1.690056981043034 0.9462431947975817
|  4> C -1.3762847706660177 0.2997202437304076 0.3035352129265271
|  5> N -0.616546135689445 0.338770357312178 -0.9645136872354867
|  6> N 0.7604044744890541 0.5974462265181635 -0.7375583170104425
|  7> C 1.6479672747863825 -0.47270157299702803 -0.7165076821960599
|  8> O 1.2882264450683527 -1.644747709677046 -0.7917844340478901
|  9> C 3.093271939998496 -0.12676197137240777 -0.6319145082034003
| 10> C 4.024745329299774 -1.0344110835826739 -1.1522049563091294
| 11> C 5.3901054285685674 -0.7505708732846175 -1.0940726851464464
| 12> C 5.8306692640143964 0.4353143738036546 -0.5079503164134167
| 13> C 4.90944095428152 1.3355744035835948 0.02744629473163552
| 14> C 3.5416140940012055 1.0564436395275323 -0.02923963283492254
| 15> C -2.771947093712404 -0.2579508756010173 0.061256283311367794
| 16> C -3.6676976911067483 0.36539370599858373 -0.823377950547411
| 17> C -4.944244881918385 -0.1592431616444185 -1.0334897113245465
| 18> C -5.341843800370204 -1.3151773202389863 -0.36556530131073783
| 19> C -4.462812577784033 -1.9492425801888813 0.509806673772262
| 20> C -3.1855388386998573 -1.425794207615619 0.7212741045154492
| 21> H -2.06404614404389 1.6633123263171274 1.8569213776352353
| 22> H -1.9003139470360706 2.4306220980093967 0.27242966891310716
| 23> H -0.460139521010494 2.053381495146546 1.227822511026492
| 24> H -0.8568464519065473 -0.3675914523863804 1.0046867003509132
| 25> H -0.6723740878839713 -0.6103029053150406 -1.3627540886888023
| 26> H 1.0999440269756267 1.532598982925775 -0.944536560040006
| 27> H 3.687484681655774 -1.9643886617687867 -1.606489334589946
| 28> H 6.1086848731108345 -1.456865844066565 -1.5027718277748132
| 29> H 6.895041155323523 0.6534371136806535 -0.45999400257702666
| 30> H 5.259314510970335 2.2513595876913888 0.49827249824235303
| 31> H 2.847904728419669 1.7578025143553153 0.4252468671976937
| 32> H -3.367851576129411 1.2621117248784084 -1.3617508549003667
| 33> H -5.62561916933233 0.33269321614427555 -1.7224262627039513
| 34> H -6.334504162974509 -1.7249491189457118 -0.5312575149530687
| 35> H -4.769595230815909 -2.8549641418030363 1.0263414213135074
| 36> H -2.5120322362211582 -1.9403755101789266 1.4035271720238565
| 37> *
| 38>
| 39>                          ****END OF INPUT****

CARTESIAN COORDINATES (ANGSTROEM)
---------------------------------
  C     -1.454581    1.690057    0.946243
  C     -1.376285    0.299720    0.303535
  N     -0.616546    0.338770   -0.964514
  N      0.760404    0.597446   -0.737558
  C      1.647967   -0.472702   -0.716508
  O      1.288226   -1.644748   -0.791784
  C      3.093272   -0.126762   -0.631915
  C      4.024745   -1.034411   -1.152205
  C      5.390105   -0.750571   -1.094073
  C      5.830669    0.435314   -0.507950
  C      4.909441    1.335574    0.027446
  C      3.541614    1.056444   -0.029240
  C     -2.771947   -0.257951    0.061256
  C     -3.667698    0.365394   -0.823378
  C     -4.944245   -0.159243   -1.033490
  C     -5.341844   -1.315177   -0.365565
  C     -4.462813   -1.949243    0.509807
  C     -3.185539   -1.425794    0.721274
  H     -2.064046    1.663312    1.856921
  H     -1.900314    2.430622    0.272430
  H     -0.460140    2.053381    1.227823
  H     -0.856846   -0.367591    1.004687
  H     -0.672374   -0.610303   -1.362754
  H      1.099944    1.532599   -0.944537
  H      3.687485   -1.964389   -1.606489
  H      6.108685   -1.456866   -1.502772
  H      6.895041    0.653437   -0.459994
  H      5.259315    2.251360    0.498272
  H      2.847905    1.757803    0.425247
  H     -3.367852    1.262112   -1.361751
  H     -5.625619    0.332693   -1.722426
  H     -6.334504   -1.724949   -0.531258
  H     -4.769595   -2.854964    1.026341
  H     -2.512032   -1.940376    1.403527

 Total Charge           Charge          ....    0
 Multiplicity           Mult            ....    1
 Number of Electrons    NEL             ....  128
 Basis Dimension        Dim             ....  332

ORBITAL ENERGIES
----------------

  NO   OCC          E(Eh)            E(eV)
   0   2.0000     -20.523592      -558.4753
   1   2.0000     -15.612563      -424.8394
   2   2.0000     -15.586122      -424.1200
   3   2.0000     -11.364342      -309.2395
   4   2.0000     -11.264619      -306.5259
   5   2.0000     -11.262707      -306.4738
   6   2.0000     -11.257877      -306.3424
   7   2.0000     -11.256882      -306.3153
   8   2.0000     -11.255043      -306.2653
   9   2.0000     -11.253816      -306.2319
  10   2.0000     -11.250908      -306.1528
  11   2.0000     -11.240954      -305.8819
  12   2.0000     -11.236683      -305.7657
  13   2.0000     -11.236506      -305.7609
  14   2.0000     -11.235565      -305.7353
  15   2.0000     -11.235132      -305.7235
  16   2.0000     -11.234352      -305.7023
  17   2.0000     -11.223991      -305.4203
  18   2.0000      -1.375184       -37.4206
  19   2.0000      -1.279793       -34.8249
  20   2.0000      -1.161685       -31.6111
  21   2.0000      -1.146048       -31.1856
  22   2.0000      -1.104130       -30.0449
  23   2.0000      -1.038376       -28.2556
  24   2.0000      -1.020042       -27.7568
  25   2.0000      -1.004357       -27.3299
  26   2.0000      -1.000305       -27.2197
  27   2.0000      -0.965897       -26.2834
  28   2.0000      -0.873489       -23.7688
  29   2.0000      -0.844600       -22.9827
  30   2.0000      -0.833183       -22.6721
  31   2.0000      -0.817295       -22.2397
  32   2.0000      -0.795570       -21.6486
  33   2.0000      -0.776828       -21.1386
  34   2.0000      -0.744333       -20.2543
  35   2.0000      -0.702136       -19.1061
  36   2.0000      -0.684434       -18.6244
  37   2.0000      -0.678456       -18.4617
  38   2.0000      -0.656352       -17.8602
  39   2.0000      -0.646351       -17.5881
  40   2.0000      -0.633291       -17.2327
  41   2.0000      -0.625876       -17.0310
  42   2.0000      -0.611350       -16.6357
  43   2.0000      -0.606104       -16.4929
  44   2.0000      -0.601432       -16.3658
  45   2.0000      -0.593136       -16.1400
  46   2.0000      -0.581833       -15.8325
  47   2.0000      -0.574360       -15.6291
  48   2.0000      -0.541891       -14.7456
  49   2.0000      -0.529350       -14.4043
  50   2.0000      -0.527552       -14.3554
  51   2.0000      -0.519839       -14.1455
  52   2.0000      -0.512102       -13.9350
  53   2.0000      -0.507394       -13.8069
  54   2.0000      -0.494259       -13.4495
  55   2.0000      -0.490947       -13.3593
  56   2.0000      -0.476770       -12.9736
  57   2.0000      -0.446669       -12.1545
  58   2.0000      -0.431975       -11.7546
  59   2.0000      -0.376983       -10.2582
  60   2.0000      -0.354361        -9.6426
  61   2.0000      -0.350430        -9.5357
  62   2.0000      -0.334730        -9.1085
  63   2.0000      -0.329830        -8.9751
  64   0.0000       0.088295         2.4026
  65   0.0000       0.116177         3.1613
  66   0.0000       0.130941         3.5631
  67   0.0000       0.134089         3.6488
  68   0.0000       0.164510         4.4765

MULLIKEN ATOMIC CHARGES
-----------------------
   0 C :    0.018360
   1 C :    0.165858
   2 N :   -0.240047
   3 N :   -0.351712
   4 C :    0.557277
   5 O :   -0.450059
   6 C :   -0.213662
   7 C :    0.024940
   8 C :   -0.043408
   9 C :   -0.018659
  10 C :   -0.044210
  11 C :   -0.013402
  12 C :   -0.187777
  13 C :    0.002311
  14 C :   -0.036919
  15 C :   -0.036214
  16 C :   -0.037214
  17 C :   -0.018114
  18 H :    0.039588
  19 H :    0.030424
  20 H :    0.023819
  21 H :    0.027256
  22 H :    0.162861
  23 H :    0.179389
  24 H :    0.069767
  25 H :    0.049957
  26 H :    0.050023
  27 H :    0.046801
  28 H :    0.041988
  29 H :    0.043023
  30 H :    0.039554
  31 H :    0.039906
  32 H :    0.040031
  33 H :    0.038265
Sum of atomic charges:   -0.0000000

LOEWDIN ATOMIC CHARGES
----------------------
   0 C :   -0.032909
   1 C :    0.050387
   2 N :   -0.068871
   3 N :   -0.036024
   4 C :    0.184723
   5 O :   -0.311980
   6 C :   -0.082596
   7 C :    0.025145
   8 C :   -0.025796
   9 C :   -0.004581
  10 C :   -0.028806
  11 C :   -0.010681
  12 C :   -0.037138
  13 C :   -0.014708
  14 C :   -0.024422
  15 C :   -0.027659
  16 C :   -0.024599
  17 C :   -0.022342
  18 H :    0.023574
  19 H :    0.016828
  20 H :    0.009928
  21 H :    0.006784
  22 H :    0.066795
  23 H :    0.077726
  24 H :    0.041702
  25 H :    0.030719
  26 H :    0.030478
  27 H :    0.029329
  28 H :    0.026253
  29 H :    0.027185
  30 H :    0.026330
  31 H :    0.025655
  32 H :    0.026675
  33 H :    0.026893

  Mayer bond orders larger than 0.100000
B(  0-C ,  1-C ) :   1.0276 B(  0-C , 18-H ) :   0.9839 B(  0-C , 19-H ) :   0.9770
B(  0-C , 20-H ) :   0.9837 B(  1-C ,  2-N ) :   0.9132 B(  1-C , 12-C ) :   0.9966
B(  1-C , 21-H ) :   0.9736 B(  2-N ,  3-N ) :   0.9760 B(  2-N , 22-H ) :   0.9460
B(  3-N ,  4-C ) :   1.1156 B(  3-N , 23-H ) :   0.9358 B(  4-C ,  5-O ) :   1.9445
B(  4-C ,  6-C ) :   0.9524 B(  6-C ,  7-C ) :   1.4228 B(  6-C , 11-C ) :   1.3902
B(  7-C ,  8-C ) :   1.4224 B(  7-C , 24-H ) :   0.9988 B(  8-C ,  9-C ) :   1.4040
B(  8-C , 25-H ) :   1.0007 B(  9-C , 10-C ) :   1.4162 B(  9-C , 26-H ) :   0.9989
B( 10-C , 11-C ) :   1.4336 B( 10-C , 27-H ) :   0.9990 B( 11-C , 28-H ) :   0.9989
B( 12-C , 13-C ) :   1.3930 B( 12-C , 17-C ) :   1.4369 B( 13-C , 14-C ) :   1.4330
B( 13-C , 29-H ) :   1.0005 B( 14-C , 15-C ) :   1.4043 B( 14-C , 30-H ) :   1.0009
B( 15-C , 16-C ) :   1.4211 B( 15-C , 31-H ) :   0.9999 B( 16-C , 17-C ) :   1.4181
B( 16-C , 32-H ) :   0.9996 B( 17-C , 33-H ) :   1.0005

FINAL SINGLE POINT ENERGY      -760.527264114109

DIPOLE MOMENT
-------------
                                X             Y             Z
Electronic contribution:      5.33247      -4.14512      -3.34875
Nuclear contribution   :     -4.65457       5.18342       3.55303
                        -----------------------------------------
Total Dipole Moment    :      0.67791       1.03830       0.20428
                        -----------------------------------------
Magnitude (a.u.)       :      1.25672
Magnitude (Debye)      :      3.19433

Rotational constants in cm-1:     0.046689     0.005178     0.004910
Rotational constants in MHz :  1399.711020   155.234147   147.201521

                             ****ORCA TERMINATED NORMALLY****
TOTAL RUN TIME: 0 days 0 hours 0 minutes 14 seconds 51 msec
