                         Program Version 5.0.3 -  RELEASE  -
|  1> !RHF def2-SVP TightSCF PAL16
|  2> *xyz 0 1
|  3> C 3.200150446934501 -2.7920847950045653 0.6642229362225809
|  4> C 2.969271158650762 -2.077955915766312 -0.6666222138749438
|  5> C 4.052698808160536 -2.4793331278248254 -1.6691652379396429
|  6> C 2.968683175421033 -0.5602082012345422 -0.44447854174615253
|  7> O 4.0055373458565215 0.08285803113936784 -0.6162766653859504
|  8> N 1.7772180891613094 -0.003602294848374131 0.0009208017094515971
|  9> C 0.46961828847488063 -0.6818536427573089 0.05802250068182797
| 10> C -0.540154377375559 0.29703958766820987 0.6921486488875555
| 11> C -1.8790246382085 0.35203598858774365 -0.05307995975909984
| 12> C -2.660512243584916 -0.9650971201815982 0.07518228089769145
| 13> N -3.862788773944402 -1.0006338727775101 -0.7714913080916477
| 14> C -4.883207515844699 -0.04453666208438812 -0.333672399177602
| 15> C -4.4322792091756575 -2.35199865708756 -0.7818897389142804
| 16> C 0.24049028207826267 1.5839010019549944 0.6595994668864463
| 17> C -0.2072053937711754 2.8554854734826445 1.0034725232162975
| 18> C 0.7091567920688133 3.9158358475481054 0.9547397006168363
| 19> N 0.2669371027518078 5.271112025777638 1.308758522552802
| 20> O -0.9148761413183122 5.41915115614944 1.6527893946802923
| 21> O 1.099441478104328 6.186550511612998 1.2446528382132316
| 22> C 2.0475267914810145 3.6972093064637104 0.5808294115234526
| 23> C 2.4815408812470863 2.4077075406376567 0.2507088373003784
| 24> C 1.57161984205628 1.3605846466350577 0.2912392325019252
| 25> H 2.448577625185252 -2.5182661768418666 1.41029784701278
| 26> H 3.164298485944419 -3.8786161204343257 0.5330398453166207
| 27> H 4.178537869645496 -2.5331245555196475 1.08487068029436
| 28> H 2.009185561226834 -2.38871951289392 -1.0900998442787742
| 29> H 3.9182043920292697 -1.9481280565501935 -2.617728476404626
| 30> H 4.011734745622124 -3.554235934311848 -1.874559743054986
| 31> H 5.05617026751121 -2.2449426131697625 -1.2968412543008863
| 32> H 0.540372836986193 -1.6041385410615638 0.6415552486642502
| 33> H 0.19719172844771962 -0.9494259185001822 -0.9703706008448364
| 34> H -0.7014324784541434 0.02588074674801763 1.743578554172964
| 35> H -2.479708546093652 1.1728924596268522 0.35494053744855636
| 36> H -1.7080253364952385 0.5858534000287844 -1.1123421740092554
| 37> H -2.9176522719279028 -1.1432610263744911 1.1276342566069657
| 38> H -1.9992147887913856 -1.7846256040608899 -0.23158410405152102
| 39> H -5.779280027011735 -0.12454384685024109 -0.960116992076279
| 40> H -4.534444401193808 0.9869200444622368 -0.44244849791774105
| 41> H -5.179495300659457 -0.20585398027243734 0.7090424999073194
| 42> H -5.299479201018836 -2.400618549199807 -1.450078943725377
| 43> H -3.7039513603668723 -3.0748229781017846 -1.1663599455677414
| 44> H -4.746245078397573 -2.6751458946957585 0.21733257071360362
| 45> H -1.2381350352042915 3.012439140208376 1.3086969887902817
| 46> H 2.7642284263465693 4.515799587871655 0.544574964943435
| 47> H 3.5187196974452566 2.2565171018012005 -0.03142242770505975
| 48> *
| 49>
| 50>                          ****END OF INPUT****

CARTESIAN COORDINATES (ANGSTROEM)
---------------------------------
  C      3.200150   -2.792085    0.664223
  C      2.969271   -2.077956   -0.666622
  C      4.052699   -2.479333   -1.669165
  C      2.968683   -0.560208   -0.444479
  O      4.005537    0.082858   -0.616277
  N      1.777218   -0.003602    0.000921
  C      0.469618   -0.681854    0.058023
  C     -0.540154    0.297040    0.692149
  C     -1.879025    0.352036   -0.053080
  C     -2.660512   -0.965097    0.075182
  N     -3.862789   -1.000634   -0.771491
  C     -4.883208   -0.044537   -0.333672
  C     -4.432279   -2.351999   -0.781890
  C      0.240490    1.583901    0.659599
  C     -0.207205    2.855485    1.003473
  C      0.709157    3.915836    0.954740
  N      0.266937    5.271112    1.308759
  O     -0.914876    5.419151    1.652789
  O      1.099441    6.186551    1.244653
  C      2.047527    3.697209    0.580829
  C      2.481541    2.407708    0.250709
  C      1.571620    1.360585    0.291239
  H      2.448578   -2.518266    1.410298
  H      3.164298   -3.878616    0.533040
  H      4.178538   -2.533125    1.084871
  H      2.009186   -2.388720   -1.090100
  H      3.918204   -1.948128   -2.617728
  H      4.011735   -3.554236   -1.874560
  H      5.056170   -2.244943   -1.296841
  H      0.540373   -1.604139    0.641555
  H      0.197192   -0.949426   -0.970371
  H     -0.701432    0.025881    1.743579
  H     -2.479709    1.172892    0.354941
  H     -1.708025    0.585853   -1.112342
  H     -2.917652   -1.143261    1.127634
  H     -1.999215   -1.784626   -0.231584
  H     -5.779280   -0.124544   -0.960117
  H     -4.534444    0.986920   -0.442448
  H     -5.179495   -0.205854    0.709042
  H     -5.299479   -2.400619   -1.450079
  H     -3.703951   -3.074823   -1.166360
  H     -4.746245   -2.675146    0.217333
  H     -1.238135    3.012439    1.308697
  H      2.764228    4.515800    0.544575
  H      3.518720    2.256517   -0.031422

 Total Charge           Charge          ....    0
 Multiplicity           Mult            ....    1
 Number of Electrons    NEL             ....  164
 Basis Dimension        Dim             ....  423

ORBITAL ENERGIES
----------------

  NO   OCC          E(Eh)            E(eV)
   0   2.0000     -20.585953      -560.1723
   1   2.0000     -20.585573      -560.1619
   2   2.0000     -20.538185      -558.8724
   3   2.0000     -15.841737      -431.0756
   4   2.0000     -15.625674      -425.1962
   5   2.0000     -15.558913      -423.3795
   6   2.0000     -11.377634      -309.6012
   7   2.0000     -11.314670      -307.8878
   8   2.0000     -11.305165      -307.6292
   9   2.0000     -11.302940      -307.5686
  10   2.0000     -11.280590      -306.9605
  11   2.0000     -11.278160      -306.8943
  12   2.0000     -11.272006      -306.7269
  13   2.0000     -11.271467      -306.7122
  14   2.0000     -11.264299      -306.5171
  15   2.0000     -11.261289      -306.4352
  16   2.0000     -11.260962      -306.4264
  17   2.0000     -11.260058      -306.4018
  18   2.0000     -11.255628      -306.2812
  19   2.0000     -11.250075      -306.1301
  20   2.0000     -11.247733      -306.0664
  21   2.0000     -11.232701      -305.6573
  22   2.0000      -1.570716       -42.7414
  23   2.0000      -1.383190       -37.6385
  24   2.0000      -1.366488       -37.1840
  25   2.0000      -1.290340       -35.1119
  26   2.0000      -1.224197       -33.3121
  27   2.0000      -1.177717       -32.0473
  28   2.0000      -1.115334       -30.3498
  29   2.0000      -1.092560       -29.7301
  30   2.0000      -1.067186       -29.0396
  31   2.0000      -1.031830       -28.0775
  32   2.0000      -0.993004       -27.0210
  33   2.0000      -0.959232       -26.1020
  34   2.0000      -0.951697       -25.8970
  35   2.0000      -0.939268       -25.5588
  36   2.0000      -0.916647       -24.9432
  37   2.0000      -0.870957       -23.7000
  38   2.0000      -0.866834       -23.5877
  39   2.0000      -0.830946       -22.6112
  40   2.0000      -0.800535       -21.7837
  41   2.0000      -0.798002       -21.7147
  42   2.0000      -0.770227       -20.9589
  43   2.0000      -0.753744       -20.5104
  44   2.0000      -0.721123       -19.6227
  45   2.0000      -0.706926       -19.2364
  46   2.0000      -0.705307       -19.1924
  47   2.0000      -0.701563       -19.0905
  48   2.0000      -0.682770       -18.5791
  49   2.0000      -0.668707       -18.1964
  50   2.0000      -0.656170       -17.8553
  51   2.0000      -0.653255       -17.7760
  52   2.0000      -0.638705       -17.3801
  53   2.0000      -0.631657       -17.1883
  54   2.0000      -0.627161       -17.0659
  55   2.0000      -0.622667       -16.9436
  56   2.0000      -0.608990       -16.5715
  57   2.0000      -0.598674       -16.2908
  58   2.0000      -0.588084       -16.0026
  59   2.0000      -0.576134       -15.6774
  60   2.0000      -0.565217       -15.3803
  61   2.0000      -0.561265       -15.2728
  62   2.0000      -0.559659       -15.2291
  63   2.0000      -0.555625       -15.1193
  64   2.0000      -0.539178       -14.6718
  65   2.0000      -0.536058       -14.5869
  66   2.0000      -0.530187       -14.4271
  67   2.0000      -0.526985       -14.3400
  68   2.0000      -0.522774       -14.2254
  69   2.0000      -0.509996       -13.8777
  70   2.0000      -0.501341       -13.6422
  71   2.0000      -0.496604       -13.5133
  72   2.0000      -0.494688       -13.4611
  73   2.0000      -0.491356       -13.3705
  74   2.0000      -0.484691       -13.1891
  75   2.0000      -0.481362       -13.0985
  76   2.0000      -0.448833       -12.2134
  77   2.0000      -0.441811       -12.0223
  78   2.0000      -0.433927       -11.8078
  79   2.0000      -0.373158       -10.1542
  80   2.0000      -0.362461        -9.8631
  81   2.0000      -0.331980        -9.0336
  82   0.0000       0.044985         1.2241
  83   0.0000       0.101683         2.7669
  84   0.0000       0.142509         3.8779
  85   0.0000       0.146550         3.9878
  86   0.0000       0.163140         4.4393

MULLIKEN ATOMIC CHARGES
-----------------------
   0 C :    0.006075
   1 C :   -0.314221
   2 C :    0.044323
   3 C :    0.533094
   4 O :   -0.442325
   5 N :   -0.679740
   6 C :    0.323253
   7 C :   -0.138321
   8 C :   -0.012443
   9 C :    0.191719
  10 N :   -0.629391
  11 C :    0.142879
  12 C :    0.152049
  13 C :   -0.171492
  14 C :    0.029780
  15 C :    0.084250
  16 N :    0.348102
  17 O :   -0.365752
  18 O :   -0.357587
  19 C :    0.032438
  20 C :   -0.101445
  21 C :    0.328142
  22 H :    0.031982
  23 H :    0.049262
  24 H :    0.052940
  25 H :    0.056609
  26 H :    0.038981
  27 H :    0.029339
  28 H :    0.054951
  29 H :    0.050859
  30 H :    0.056390
  31 H :    0.063604
  32 H :    0.043763
  33 H :    0.048608
  34 H :    0.003736
  35 H :    0.016491
  36 H :    0.037337
  37 H :    0.041322
  38 H :    0.004506
  39 H :    0.036983
  40 H :    0.029631
  41 H :    0.003323
  42 H :    0.071784
  43 H :    0.086745
  44 H :    0.087465
Sum of atomic charges:   -0.0000000

LOEWDIN ATOMIC CHARGES
----------------------
   0 C :   -0.017179
   1 C :   -0.060786
   2 C :   -0.016210
   3 C :    0.208727
   4 O :   -0.293139
   5 N :   -0.113024
   6 C :    0.099037
   7 C :   -0.010442
   8 C :   -0.009486
   9 C :    0.063191
  10 N :   -0.205241
  11 C :    0.054882
  12 C :    0.056202
  13 C :   -0.056275
  14 C :    0.027841
  15 C :   -0.049942
  16 N :    0.379647
  17 O :   -0.294398
  18 O :   -0.286604
  19 C :    0.037295
  20 C :   -0.042304
  21 C :    0.096352
  22 H :    0.012977
  23 H :    0.023702
  24 H :    0.027304
  25 H :    0.019618
  26 H :    0.021275
  27 H :    0.016399
  28 H :    0.026832
  29 H :    0.015934
  30 H :    0.015808
  31 H :    0.028209
  32 H :    0.015983
  33 H :    0.023710
  34 H :   -0.007327
  35 H :    0.007807
  36 H :    0.016940
  37 H :    0.012839
  38 H :   -0.006480
  39 H :    0.014935
  40 H :    0.011290
  41 H :   -0.006975
  42 H :    0.044676
  43 H :    0.049884
  44 H :    0.046513

  Mayer bond orders larger than 0.100000
B(  0-C ,  1-C ) :   1.0031 B(  0-C , 22-H ) :   0.9853 B(  0-C , 23-H ) :   0.9876
B(  0-C , 24-H ) :   0.9805 B(  1-C ,  2-C ) :   1.0326 B(  1-C ,  3-C ) :   0.9282
B(  1-C , 25-H ) :   0.9598 B(  2-C , 26-H ) :   0.9863 B(  2-C , 27-H ) :   0.9864
B(  2-C , 28-H ) :   0.9772 B(  3-C ,  4-O ) :   1.9374 B(  3-C ,  5-N ) :   1.0319
B(  5-N ,  6-C ) :   0.8511 B(  5-N , 21-C ) :   0.9381 B(  6-C ,  7-C ) :   1.0077
B(  6-C , 29-H ) :   0.9689 B(  6-C , 30-H ) :   0.9780 B(  7-C ,  8-C ) :   1.0316
B(  7-C , 13-C ) :   0.9746 B(  7-C , 31-H ) :   0.9323 B(  8-C ,  9-C ) :   1.0324
B(  8-C , 32-H ) :   0.9690 B(  8-C , 33-H ) :   0.9614 B(  9-C , 10-N ) :   0.9558
B(  9-C , 34-H ) :   0.9621 B(  9-C , 35-H ) :   0.9762 B( 10-N , 11-C ) :   0.9356
B( 10-N , 12-C ) :   0.9458 B( 11-C , 36-H ) :   0.9916 B( 11-C , 37-H ) :   0.9912
B( 11-C , 38-H ) :   0.9757 B( 12-C , 39-H ) :   0.9922 B( 12-C , 40-H ) :   0.9914
B( 12-C , 41-H ) :   0.9766 B( 13-C , 14-C ) :   1.4683 B( 13-C , 21-C ) :   1.3743
B( 14-C , 15-C ) :   1.3759 B( 14-C , 42-H ) :   1.0037 B( 15-C , 16-N ) :   0.8378
B( 15-C , 19-C ) :   1.3920 B( 16-N , 17-O ) :   1.4948 B( 16-N , 18-O ) :   1.5065
B( 17-O , 18-O ) :   0.1954 B( 19-C , 20-C ) :   1.4005 B( 19-C , 43-H ) :   0.9941
B( 20-C , 21-C ) :   1.4074 B( 20-C , 44-H ) :   1.0037

FINAL SINGLE POINT ENERGY     -1006.338555720527

DIPOLE MOMENT
-------------
                                X             Y             Z
Electronic contribution:     14.54798      35.61075       7.15137
Nuclear contribution   :    -15.44194     -38.87816      -7.26695
                        -----------------------------------------
Total Dipole Moment    :     -0.89397      -3.26741      -0.11559
                        -----------------------------------------
Magnitude (a.u.)       :      3.38947
Magnitude (Debye)      :      8.61535

Rotational constants in cm-1:     0.007582     0.006865     0.003739
Rotational constants in MHz :   227.313613   205.807140   112.103975

                             ****ORCA TERMINATED NORMALLY****
TOTAL RUN TIME: 0 days 0 hours 0 minutes 27 seconds 689 msec
