                         Program Version 5.0.3 -  RELEASE  -
|  1> !RHF def2-SVP TightSCF PAL16
|  2> *xyz 0 1
|  3> C -1.989521062995612 3.4377489362987226 -0.38797741388885726
|  4> C -2.2992225816663057 2.621521135981141 0.8564735822069994
|  5> C -1.9823707892870401 1.1814430377245482 0.6590053467275672
|  6> O -3.0466080450651276 0.37703023974373645 0.38600510902314195
|  7> C -2.573145982926022 -0.888476335806734 0.25681803439611633
|  8> C -3.354983031137136 -2.010947603968221 -0.008436516103613739
|  9> C -2.6875279560216536 -3.2360916241572255 -0.08513500853170713
| 10> C -1.3070366589807036 -3.314532194985574 0.10375748892725935
| 11> C -0.5474405191573728 -2.1652347801778133 0.36924325612394676
| 12> C -1.194619721995712 -0.9133950210443751 0.4352123727758444
| 13> C -0.8043121428372019 0.4473358939711565 0.6694151608211772
| 14> C 0.5111616544446308 1.0193441405606198 0.9127728464459286
| 15> O 0.6812748674317805 1.9770731926364238 1.6635274034449294
| 16> C 1.6984682611905342 0.44723383582193366 0.22722053253715824
| 17> C 1.6405822363033193 0.01332665583523239 -1.1040167344748728
| 18> C 2.783991651090875 -0.5040567421918299 -1.7156688484374067
| 19> C 3.9785064231409466 -0.5697256990899038 -1.005643743348411
| 20> O 5.067046473853591 -1.081427442126185 -1.6462564059295166
| 21> C 4.056162436120156 -0.12078606951904203 0.3092728612296496
| 22> C 2.913613830413573 0.395256430630268 0.9250546238300048
| 23> H -0.9265521206312636 3.383942247636072 -0.6464638004393919
| 24> H -2.5625462307027593 3.077859560020092 -1.249451774073471
| 25> H -2.245208342106637 4.4894705988147825 -0.2248444770682885
| 26> H -3.3607964355406055 2.7361364425762673 1.1061598587331172
| 27> H -1.7361170374942916 3.016761799484351 1.7086546198717745
| 28> H -4.4271022911719635 -1.9303384949430427 -0.14052809493848312
| 29> H -3.255387331369476 -4.141818832798347 -0.2875142380195368
| 30> H -0.8113680439703483 -4.28180377701451 0.04866969048862738
| 31> H 0.5236443149272513 -2.257607758307117 0.5246716892450576
| 32> H 0.7199926703341354 0.07963983771801632 -1.6788252825644383
| 33> H 2.746034533996913 -0.8474533147385885 -2.7462662903059125
| 34> H 5.832636759620274 -1.0370247633524605 -1.0497203928444807
| 35> H 4.988062752225474 -0.15869847327979822 0.865019713429387
| 36> H 2.970687459965985 0.7582949420449006 1.949794830710621
| 37> *
| 38>
| 39>                          ****END OF INPUT****

CARTESIAN COORDINATES (ANGSTROEM)
---------------------------------
  C     -1.989521    3.437749   -0.387977
  C     -2.299223    2.621521    0.856474
  C     -1.982371    1.181443    0.659005
  O     -3.046608    0.377030    0.386005
  C     -2.573146   -0.888476    0.256818
  C     -3.354983   -2.010948   -0.008437
  C     -2.687528   -3.236092   -0.085135
  C     -1.307037   -3.314532    0.103757
  C     -0.547441   -2.165235    0.369243
  C     -1.194620   -0.913395    0.435212
  C     -0.804312    0.447336    0.669415
  C      0.511162    1.019344    0.912773
  O      0.681275    1.977073    1.663527
  C      1.698468    0.447234    0.227221
  C      1.640582    0.013327   -1.104017
  C      2.783992   -0.504057   -1.715669
  C      3.978506   -0.569726   -1.005644
  O      5.067046   -1.081427   -1.646256
  C      4.056162   -0.120786    0.309273
  C      2.913614    0.395256    0.925055
  H     -0.926552    3.383942   -0.646464
  H     -2.562546    3.077860   -1.249452
  H     -2.245208    4.489471   -0.224844
  H     -3.360796    2.736136    1.106160
  H     -1.736117    3.016762    1.708655
  H     -4.427102   -1.930338   -0.140528
  H     -3.255387   -4.141819   -0.287514
  H     -0.811368   -4.281804    0.048670
  H      0.523644   -2.257608    0.524672
  H      0.719993    0.079640   -1.678825
  H      2.746035   -0.847453   -2.746266
  H      5.832637   -1.037025   -1.049720
  H      4.988063   -0.158698    0.865020
  H      2.970687    0.758295    1.949795

 Total Charge           Charge          ....    0
 Multiplicity           Mult            ....    1
 Number of Electrons    NEL             ....  140
 Basis Dimension        Dim             ....  350

ORBITAL ENERGIES
----------------

  NO   OCC          E(Eh)            E(eV)
   0   2.0000     -20.629521      -561.3578
   1   2.0000     -20.593059      -560.3656
   2   2.0000     -20.533189      -558.7365
   3   2.0000     -11.337769      -308.5164
   4   2.0000     -11.332420      -308.3708
   5   2.0000     -11.319867      -308.0293
   6   2.0000     -11.300222      -307.4947
   7   2.0000     -11.262380      -306.4649
   8   2.0000     -11.261526      -306.4417
   9   2.0000     -11.251080      -306.1574
  10   2.0000     -11.249254      -306.1078
  11   2.0000     -11.248602      -306.0900
  12   2.0000     -11.247541      -306.0611
  13   2.0000     -11.245163      -305.9964
  14   2.0000     -11.244547      -305.9797
  15   2.0000     -11.242845      -305.9334
  16   2.0000     -11.242117      -305.9136
  17   2.0000     -11.241589      -305.8992
  18   2.0000     -11.241526      -305.8975
  19   2.0000     -11.232211      -305.6440
  20   2.0000      -1.466805       -39.9138
  21   2.0000      -1.397585       -38.0302
  22   2.0000      -1.360996       -37.0346
  23   2.0000      -1.156456       -31.4688
  24   2.0000      -1.150200       -31.2985
  25   2.0000      -1.103035       -30.0151
  26   2.0000      -1.060501       -28.8577
  27   2.0000      -1.025112       -27.8947
  28   2.0000      -1.022722       -27.8297
  29   2.0000      -1.007191       -27.4071
  30   2.0000      -0.980307       -26.6755
  31   2.0000      -0.900409       -24.5014
  32   2.0000      -0.878446       -23.9037
  33   2.0000      -0.859382       -23.3850
  34   2.0000      -0.832267       -22.6471
  35   2.0000      -0.826645       -22.4942
  36   2.0000      -0.794471       -21.6187
  37   2.0000      -0.756937       -20.5973
  38   2.0000      -0.745366       -20.2824
  39   2.0000      -0.721966       -19.6457
  40   2.0000      -0.693529       -18.8719
  41   2.0000      -0.676278       -18.4025
  42   2.0000      -0.670218       -18.2376
  43   2.0000      -0.654220       -17.8022
  44   2.0000      -0.649053       -17.6616
  45   2.0000      -0.626780       -17.0555
  46   2.0000      -0.622238       -16.9319
  47   2.0000      -0.616326       -16.7711
  48   2.0000      -0.608766       -16.5654
  49   2.0000      -0.605840       -16.4857
  50   2.0000      -0.602230       -16.3875
  51   2.0000      -0.598489       -16.2857
  52   2.0000      -0.586050       -15.9472
  53   2.0000      -0.577122       -15.7043
  54   2.0000      -0.558654       -15.2018
  55   2.0000      -0.541980       -14.7480
  56   2.0000      -0.532770       -14.4974
  57   2.0000      -0.528171       -14.3723
  58   2.0000      -0.514387       -13.9972
  59   2.0000      -0.509855       -13.8739
  60   2.0000      -0.505742       -13.7620
  61   2.0000      -0.498388       -13.5618
  62   2.0000      -0.495932       -13.4950
  63   2.0000      -0.481092       -13.0912
  64   2.0000      -0.425269       -11.5722
  65   2.0000      -0.407811       -11.0971
  66   2.0000      -0.356025        -9.6879
  67   2.0000      -0.332639        -9.0516
  68   2.0000      -0.327787        -8.9195
  69   2.0000      -0.302405        -8.2289
  70   0.0000       0.083043         2.2597
  71   0.0000       0.104420         2.8414
  72   0.0000       0.112975         3.0742
  73   0.0000       0.147748         4.0204
  74   0.0000       0.158583         4.3153

MULLIKEN ATOMIC CHARGES
-----------------------
   0 C :   -0.063704
   1 C :    0.044469
   2 C :    0.187987
   3 O :   -0.452810
   4 C :    0.263070
   5 C :   -0.081217
   6 C :   -0.026388
   7 C :   -0.045680
   8 C :   -0.016644
   9 C :   -0.040879
  10 C :   -0.226400
  11 C :    0.424036
  12 O :   -0.405047
  13 C :   -0.249991
  14 C :    0.055882
  15 C :   -0.103641
  16 C :    0.292508
  17 O :   -0.361529
  18 C :   -0.133137
  19 C :    0.058224
  20 H :    0.051377
  21 H :    0.039241
  22 H :    0.044768
  23 H :    0.054433
  24 H :    0.085220
  25 H :    0.045088
  26 H :    0.046122
  27 H :    0.042840
  28 H :    0.052378
  29 H :    0.062166
  30 H :    0.051604
  31 H :    0.209966
  32 H :    0.031052
  33 H :    0.064638
Sum of atomic charges:    0.0000000

LOEWDIN ATOMIC CHARGES
----------------------
   0 C :   -0.024379
   1 C :   -0.023697
   2 C :    0.168941
   3 O :   -0.087901
   4 C :    0.073066
   5 C :   -0.039345
   6 C :   -0.025577
   7 C :   -0.036833
   8 C :   -0.016216
   9 C :   -0.046926
  10 C :   -0.157114
  11 C :    0.167702
  12 O :   -0.259244
  13 C :   -0.111866
  14 C :    0.029759
  15 C :   -0.065468
  16 C :    0.112276
  17 O :   -0.115157
  18 C :   -0.093473
  19 C :    0.046991
  20 H :    0.022009
  21 H :    0.018374
  22 H :    0.022005
  23 H :    0.033564
  24 H :    0.043610
  25 H :    0.035406
  26 H :    0.028614
  27 H :    0.028541
  28 H :    0.030560
  29 H :    0.036423
  30 H :    0.036306
  31 H :    0.102131
  32 H :    0.025893
  33 H :    0.041027

  Mayer bond orders larger than 0.100000
B(  0-C ,  1-C ) :   1.0460 B(  0-C , 20-H ) :   0.9863 B(  0-C , 21-H ) :   0.9825
B(  0-C , 22-H ) :   0.9872 B(  1-C ,  2-C ) :   0.9796 B(  1-C , 23-H ) :   0.9595
B(  1-C , 24-H ) :   0.9551 B(  2-C ,  3-O ) :   1.0537 B(  2-C , 10-C ) :   1.6836
B(  3-O ,  4-C ) :   0.9692 B(  4-C ,  5-C ) :   1.3905 B(  4-C ,  9-C ) :   1.3586
B(  5-C ,  6-C ) :   1.4394 B(  5-C , 25-H ) :   1.0082 B(  6-C ,  7-C ) :   1.3748
B(  6-C , 26-H ) :   0.9970 B(  7-C ,  8-C ) :   1.4716 B(  7-C , 27-H ) :   0.9993
B(  8-C ,  9-C ) :   1.3385 B(  8-C , 28-H ) :   1.0006 B(  9-C , 10-C ) :   1.1342
B( 10-C , 11-C ) :   0.9584 B( 11-C , 12-O ) :   2.0384 B( 11-C , 13-C ) :   0.9787
B( 13-C , 14-C ) :   1.3851 B( 13-C , 19-C ) :   1.4134 B( 14-C , 15-C ) :   1.4407
B( 14-C , 29-H ) :   0.9971 B( 15-C , 16-C ) :   1.3761 B( 15-C , 30-H ) :   1.0060
B( 16-C , 17-O ) :   1.0697 B( 16-C , 18-C ) :   1.3438 B( 17-O , 31-H ) :   0.9600
B( 18-C , 19-C ) :   1.4242 B( 18-C , 32-H ) :   1.0020 B( 19-C , 33-H ) :   0.9964

FINAL SINGLE POINT ENERGY      -875.844145215624

DIPOLE MOMENT
-------------
                                X             Y             Z
Electronic contribution:      3.04008      -4.55329       2.50651
Nuclear contribution   :     -2.78259       4.04876      -2.77311
                        -----------------------------------------
Total Dipole Moment    :      0.25748      -0.50454      -0.26660
                        -----------------------------------------
Magnitude (a.u.)       :      0.62605
Magnitude (Debye)      :      1.59128

Rotational constants in cm-1:     0.016613     0.008188     0.006106
Rotational constants in MHz :   498.042448   245.462584   183.047461

                             ****ORCA TERMINATED NORMALLY****
TOTAL RUN TIME: 0 days 0 hours 0 minutes 18 seconds 845 msec
