                         Program Version 5.0.3 -  RELEASE  -
|  1> !RHF def2-SVP TightSCF PAL16
|  2> *xyz 0 1
|  3> C 3.553782773477838 1.2929613730383023 0.9796515976431317
|  4> N 3.4761090700990387 0.4631091337742354 -0.22021878983695042
|  5> C 4.06461968305895 -0.8515079038105898 0.012703898220462952
|  6> C 2.111839173126423 0.3995331460425575 -0.768729440623015
|  7> C 1.0502606752150134 -0.3018007787525693 0.09758514067199069
|  8> C -0.33661900225690305 -0.3307192926912609 -0.5919674057159131
|  9> C -1.2679214283579736 -1.2984879868393904 0.1367526634765202
| 10> C -1.6616270476560973 -2.497116895127585 -0.4800278065485377
| 11> C -2.507594101536459 -3.3917454297346925 0.18018976703702627
| 12> C -2.964524338368799 -3.0947165743650973 1.4622116373795082
| 13> Br -4.1098720125597294 -4.30584319913296 2.3538274978684868
| 14> C -2.5832613777142117 -1.912694344892852 2.0914366696355247
| 15> C -1.7370986797230499 -1.0192661935868903 1.43139592745228
| 16> C -0.9708083939762516 1.0477753260067537 -0.7629114359802946
| 17> C -1.87389202964759 1.2682763376970518 -1.8039491921479063
| 18> C -2.4624069606124106 2.5230620931923284 -1.9352596198039795
| 19> C -2.1435691329240196 3.523101692054928 -1.026241239652742
| 20> C -1.2478324545291188 3.2238775985988535 -0.015331046403323138
| 21> N -0.6625013183302999 2.0158795408223047 0.13831421197777038
| 22> H 3.1337602298134146 2.2875544202654328 0.7930504818479452
| 23> H 4.60015437647579 1.4456854581657885 1.267377225825649
| 24> H 3.0313115160190245 0.8504555527256591 1.8343835980243215
| 25> H 5.128061235104013 -0.752078570020446 0.2580571148278279
| 26> H 3.580844317921568 -1.3931373064375834 0.8325294917058969
| 27> H 4.009409935826306 -1.4677492594628978 -0.8914301528266777
| 28> H 1.7931160469768217 1.4228344670415172 -1.0004862288712546
| 29> H 2.1632866802869346 -0.10730688139632623 -1.7414263922728812
| 30> H 0.9786145270273509 0.1806674373749024 1.0795746308940095
| 31> H 1.3665089819696974 -1.3364153219620996 0.28189662390557557
| 32> H -0.16979881619996812 -0.7245450327662509 -1.6052616984572439
| 33> H -1.3110159934554129 -2.7463844148743752 -1.4792024386898175
| 34> H -2.8019720708853972 -4.314565720366468 -0.3124284384440383
| 35> H -2.936957008070079 -1.6747738511615269 3.0908941431192822
| 36> H -1.4480342427393091 -0.0954724337981186 1.931320496552567
| 37> H -2.1237683831751237 0.47517136446319086 -2.5015048484092115
| 38> H -3.167429080200134 2.716030526756366 -2.7387238863450887
| 39> H -2.585018392340881 4.510262371082244 -1.100768787341279
| 40> H -0.9681569571387224 3.9700895520774386 0.7227160303042741
| 41> *
| 42>
| 43>                          ****END OF INPUT****

CARTESIAN COORDINATES (ANGSTROEM)
---------------------------------
  C      3.553783    1.292961    0.979652
  N      3.476109    0.463109   -0.220219
  C      4.064620   -0.851508    0.012704
  C      2.111839    0.399533   -0.768729
  C      1.050261   -0.301801    0.097585
  C     -0.336619   -0.330719   -0.591967
  C     -1.267921   -1.298488    0.136753
  C     -1.661627   -2.497117   -0.480028
  C     -2.507594   -3.391745    0.180190
  C     -2.964524   -3.094717    1.462212
  Br    -4.109872   -4.305843    2.353827
  C     -2.583261   -1.912694    2.091437
  C     -1.737099   -1.019266    1.431396
  C     -0.970808    1.047775   -0.762911
  C     -1.873892    1.268276   -1.803949
  C     -2.462407    2.523062   -1.935260
  C     -2.143569    3.523102   -1.026241
  C     -1.247832    3.223878   -0.015331
  N     -0.662501    2.015880    0.138314
  H      3.133760    2.287554    0.793050
  H      4.600154    1.445685    1.267377
  H      3.031312    0.850456    1.834384
  H      5.128061   -0.752079    0.258057
  H      3.580844   -1.393137    0.832529
  H      4.009410   -1.467749   -0.891430
  H      1.793116    1.422834   -1.000486
  H      2.163287   -0.107307   -1.741426
  H      0.978615    0.180667    1.079575
  H      1.366509   -1.336415    0.281897
  H     -0.169799   -0.724545   -1.605262
  H     -1.311016   -2.746384   -1.479202
  H     -2.801972   -4.314566   -0.312428
  H     -2.936957   -1.674774    3.090894
  H     -1.448034   -0.095472    1.931320
  H     -2.123768    0.475171   -2.501505
  H     -3.167429    2.716031   -2.738724
  H     -2.585018    4.510262   -1.100769
  H     -0.968157    3.970090    0.722716

 Total Charge           Charge          ....    0
 Multiplicity           Mult            ....    1
 Number of Electrons    NEL             ....  164
 Basis Dimension        Dim             ....  379

ORBITAL ENERGIES
----------------

  NO   OCC          E(Eh)            E(eV)
   0   2.0000    -489.968884    -13332.7312
   1   2.0000     -65.137328     -1772.4768
   2   2.0000     -58.509369     -1592.1209
   3   2.0000     -58.507795     -1592.0780
   4   2.0000     -58.507782     -1592.0777
   5   2.0000     -15.570211      -423.6870
   6   2.0000     -15.535502      -422.7425
   7   2.0000     -11.294765      -307.3462
   8   2.0000     -11.291249      -307.2505
   9   2.0000     -11.284947      -307.0790
  10   2.0000     -11.267816      -306.6128
  11   2.0000     -11.256953      -306.3173
  12   2.0000     -11.254806      -306.2588
  13   2.0000     -11.253951      -306.2356
  14   2.0000     -11.252523      -306.1967
  15   2.0000     -11.250683      -306.1467
  16   2.0000     -11.248287      -306.0815
  17   2.0000     -11.247342      -306.0557
  18   2.0000     -11.247222      -306.0525
  19   2.0000     -11.244307      -305.9731
  20   2.0000     -11.243311      -305.9460
  21   2.0000     -11.240625      -305.8730
  22   2.0000     -11.222466      -305.3788
  23   2.0000      -9.829017      -267.4612
  24   2.0000      -7.445809      -202.6108
  25   2.0000      -7.436683      -202.3624
  26   2.0000      -7.436586      -202.3598
  27   2.0000      -3.188506       -86.7637
  28   2.0000      -3.184329       -86.6500
  29   2.0000      -3.184241       -86.6476
  30   2.0000      -3.174251       -86.3758
  31   2.0000      -3.174248       -86.3757
  32   2.0000      -1.249286       -33.9948
  33   2.0000      -1.201963       -32.7071
  34   2.0000      -1.166046       -31.7297
  35   2.0000      -1.098673       -29.8964
  36   2.0000      -1.082101       -29.4455
  37   2.0000      -1.048436       -28.5294
  38   2.0000      -1.018037       -27.7022
  39   2.0000      -1.013103       -27.5679
  40   2.0000      -0.972985       -26.4763
  41   2.0000      -0.933792       -25.4098
  42   2.0000      -0.918538       -24.9947
  43   2.0000      -0.869989       -23.6736
  44   2.0000      -0.853956       -23.2373
  45   2.0000      -0.839211       -22.8361
  46   2.0000      -0.822966       -22.3940
  47   2.0000      -0.785431       -21.3727
  48   2.0000      -0.768796       -20.9200
  49   2.0000      -0.714340       -19.4382
  50   2.0000      -0.686205       -18.6726
  51   2.0000      -0.675161       -18.3721
  52   2.0000      -0.660675       -17.9779
  53   2.0000      -0.642874       -17.4935
  54   2.0000      -0.636884       -17.3305
  55   2.0000      -0.634133       -17.2556
  56   2.0000      -0.626990       -17.0613
  57   2.0000      -0.617123       -16.7928
  58   2.0000      -0.602780       -16.4025
  59   2.0000      -0.594355       -16.1732
  60   2.0000      -0.586324       -15.9547
  61   2.0000      -0.573697       -15.6111
  62   2.0000      -0.558848       -15.2070
  63   2.0000      -0.546365       -14.8673
  64   2.0000      -0.533132       -14.5072
  65   2.0000      -0.530573       -14.4376
  66   2.0000      -0.521620       -14.1940
  67   2.0000      -0.514923       -14.0118
  68   2.0000      -0.513125       -13.9628
  69   2.0000      -0.504242       -13.7211
  70   2.0000      -0.496934       -13.5223
  71   2.0000      -0.487295       -13.2600
  72   2.0000      -0.481567       -13.1041
  73   2.0000      -0.466776       -12.7016
  74   2.0000      -0.432564       -11.7707
  75   2.0000      -0.420584       -11.4447
  76   2.0000      -0.411179       -11.1887
  77   2.0000      -0.387483       -10.5440
  78   2.0000      -0.356033        -9.6882
  79   2.0000      -0.349630        -9.5139
  80   2.0000      -0.341945        -9.3048
  81   2.0000      -0.320518        -8.7217
  82   0.0000       0.098153         2.6709
  83   0.0000       0.112443         3.0597
  84   0.0000       0.118784         3.2323
  85   0.0000       0.132269         3.5992
  86   0.0000       0.161152         4.3852

MULLIKEN ATOMIC CHARGES
-----------------------
   0 C :    0.153510
   1 N :   -0.624518
   2 C :    0.151906
   3 C :    0.184636
   4 C :    0.001727
   5 C :   -0.004670
   6 C :   -0.107497
   7 C :   -0.030385
   8 C :    0.010376
   9 C :   -0.101942
  10 Br:   -0.050751
  11 C :    0.011510
  12 C :   -0.008448
  13 C :    0.069283
  14 C :   -0.053290
  15 C :    0.050715
  16 C :   -0.126061
  17 C :    0.169744
  18 N :   -0.386914
  19 H :    0.032210
  20 H :    0.026070
  21 H :    0.004795
  22 H :    0.029226
  23 H :    0.006481
  24 H :    0.025118
  25 H :    0.040646
  26 H :    0.015059
  27 H :    0.055641
  28 H :    0.036073
  29 H :    0.027891
  30 H :    0.036355
  31 H :    0.048344
  32 H :    0.049775
  33 H :    0.060256
  34 H :    0.039559
  35 H :    0.053562
  36 H :    0.051136
  37 H :    0.052870
Sum of atomic charges:    0.0000000

LOEWDIN ATOMIC CHARGES
----------------------
   0 C :    0.055863
   1 N :   -0.202017
   2 C :    0.053770
   3 C :    0.061014
   4 C :   -0.019453
   5 C :   -0.009008
   6 C :   -0.010856
   7 C :   -0.027325
   8 C :   -0.026508
   9 C :   -0.128950
  10 Br:    0.075553
  11 C :   -0.023886
  12 C :   -0.011980
  13 C :    0.057035
  14 C :   -0.057815
  15 C :    0.031528
  16 C :   -0.072452
  17 C :    0.064403
  18 N :   -0.155719
  19 H :    0.014676
  20 H :    0.010577
  21 H :   -0.008983
  22 H :    0.012100
  23 H :   -0.009272
  24 H :    0.011201
  25 H :    0.012489
  26 H :    0.005055
  27 H :    0.019072
  28 H :    0.015359
  29 H :    0.021940
  30 H :    0.026813
  31 H :    0.032317
  32 H :    0.033237
  33 H :    0.034247
  34 H :    0.029297
  35 H :    0.032979
  36 H :    0.030986
  37 H :    0.022710

  Mayer bond orders larger than 0.100000
B(  0-C ,  1-N ) :   0.9450 B(  0-C , 19-H ) :   0.9907 B(  0-C , 20-H ) :   0.9914
B(  0-C , 21-H ) :   0.9777 B(  1-N ,  2-C ) :   0.9467 B(  1-N ,  3-C ) :   0.9699
B(  2-C , 22-H ) :   0.9916 B(  2-C , 23-H ) :   0.9769 B(  2-C , 24-H ) :   0.9903
B(  3-C ,  4-C ) :   1.0017 B(  3-C , 25-H ) :   0.9816 B(  3-C , 26-H ) :   0.9809
B(  4-C ,  5-C ) :   1.0367 B(  4-C , 27-H ) :   0.9470 B(  4-C , 28-H ) :   0.9684
B(  5-C ,  6-C ) :   1.0052 B(  5-C , 13-C ) :   0.9633 B(  5-C , 29-H ) :   0.9657
B(  6-C ,  7-C ) :   1.4268 B(  6-C , 12-C ) :   1.3981 B(  7-C ,  8-C ) :   1.4294
B(  7-C , 30-H ) :   1.0016 B(  8-C ,  9-C ) :   1.4224 B(  8-C , 31-H ) :   0.9983
B(  9-C , 10-Br) :   0.9866 B(  9-C , 11-C ) :   1.4047 B( 11-C , 12-C ) :   1.4456
B( 11-C , 32-H ) :   1.0000 B( 12-C , 33-H ) :   0.9946 B( 13-C , 14-C ) :   1.3998
B( 13-C , 18-N ) :   1.4453 B( 14-C , 15-C ) :   1.4432 B( 14-C , 34-H ) :   0.9901
B( 15-C , 16-C ) :   1.4102 B( 15-C , 35-H ) :   0.9926 B( 16-C , 17-C ) :   1.4131
B( 16-C , 36-H ) :   0.9912 B( 17-C , 18-N ) :   1.4502 B( 17-C , 37-H ) :   1.0002

FINAL SINGLE POINT ENERGY     -3297.398790077159

DIPOLE MOMENT
-------------
                                X             Y             Z
Electronic contribution:    -60.85480     -51.04562      26.97770
Nuclear contribution   :     60.63044      51.69350     -27.70924
                        -----------------------------------------
Total Dipole Moment    :     -0.22436       0.64788      -0.73154
                        -----------------------------------------
Magnitude (a.u.)       :      1.00262
Magnitude (Debye)      :      2.54844

Rotational constants in cm-1:     0.013147     0.004419     0.003624
Rotational constants in MHz :   394.139886   132.469587   108.636867

                             ****ORCA TERMINATED NORMALLY****
TOTAL RUN TIME: 0 days 0 hours 0 minutes 23 seconds 295 msec
