                         Program Version 5.0.3 -  RELEASE  -
|  1> !RHF def2-SVP TightSCF PAL16
|  2> *xyz 0 1
|  3> C 5.77905817158324 -1.9348052203591557 -0.9214814836373849
|  4> C 5.034141816261035 -0.6892928229358334 -0.4112968609800139
|  5> C 6.00767930470448 0.4982672580166836 -0.5047796223709214
|  6> N 4.530115790423541 -0.8774501257480452 0.9715049188973859
|  7> C 3.8195572226362606 0.30180902245469055 1.5126124420052902
|  8> C 2.4654065506106306 0.6065301472332372 0.8400914216716132
|  9> N 1.5869862302822693 -0.5586401944502243 0.73655074681979
| 10> C 0.20322989396117794 -0.503860585971136 0.5628479530048159
| 11> O -0.44967229634509726 -1.554046949508838 0.5279869267075817
| 12> C -0.518779905710722 0.879327545800075 0.5604634605661637
| 13> C -0.02643128983726925 2.0228820465358606 -0.32877391977540343
| 14> C -1.2516727897455264 2.940826780163723 -0.4873423124852369
| 15> C -2.395576911473739 2.216670013297132 0.2251096936287058
| 16> N -1.960206777276108 0.8323854395330431 0.2569366310091696
| 17> C -2.3476670674842386 0.1178397639809323 -0.8959067556186832
| 18> O -1.5706153650481227 -0.15504085449096525 -1.8084453899138198
| 19> C -3.790057197553355 -0.225786561364349 -1.0247102038055103
| 20> C -4.330290453320369 -0.33105347476116004 -2.320367048825432
| 21> C -5.677808187513806 -0.6234604751872682 -2.514443101813491
| 22> C -6.528255952606613 -0.8273959656345179 -1.4265965454374687
| 23> C -5.978412806111551 -0.744128799110549 -0.1408903828384902
| 24> N -6.582276830310076 -0.9227254136062115 1.084208159487252
| 25> C -5.667167259751521 -0.7783076313213292 2.089471924734668
| 26> C -4.451289392805748 -0.5002190864137745 1.5097867949413917
| 27> C -4.628574781470617 -0.4553544446730298 0.09336920182026394
| 28> C 2.240808166324916 -1.8350380538164002 0.41588950304421696
| 29> C 3.6001648992469635 -2.0240742898404704 1.1130215406706203
| 30> H 6.56130886450818 -2.2468714417166646 -0.22055106181277048
| 31> H 5.100623109810076 -2.7780373442746846 -1.0824388359631931
| 32> H 6.2575215700650935 -1.735194709905362 -1.8871074450922944
| 33> H 4.207668905648365 -0.49212498383254666 -1.1043456097059772
| 34> H 6.812305965934003 0.4137741322318958 0.2341656656523183
| 35> H 5.498553157665998 1.4552629726163377 -0.35567036653041134
| 36> H 6.470484664679945 0.546310808132897 -1.4970982531167483
| 37> H 3.6355037885350185 0.11703508211587409 2.58045934315418
| 38> H 4.452313533805298 1.1948835120521917 1.5003135121774966
| 39> H 1.9635239089845133 1.3745355201354232 1.4342816333516204
| 40> H 2.621679256624136 0.9936418512017932 -0.17240411075672302
| 41> H -0.4630028366625652 1.2121701239230294 1.6081399325172305
| 42> H 0.3123227122437316 1.658867342328955 -1.3050893820532503
| 43> H 0.7974645274351099 2.5875831613016134 0.11378993965778975
| 44> H -1.4779686613817764 3.070220227766772 -1.5519912747918811
| 45> H -1.0842346358626291 3.9348953640546607 -0.06096901752007821
| 46> H -2.490916098664105 2.5649721418463662 1.259768156606158
| 47> H -3.3508735242931604 2.3619278517332583 -0.2878887432778409
| 48> H -3.6864261601351034 -0.1795209933378803 -3.1849331893558306
| 49> H -6.070692379653774 -0.6974302230461846 -3.5259523034807656
| 50> H -7.577583369543833 -1.0592487253255145 -1.5802135728755833
| 51> H -7.558561310605694 -1.149750826262911 1.2130178200193613
| 52> H -5.952484082618304 -0.9003198263213754 3.125590546955234
| 53> H -3.5223648104071708 -0.3573102353002339 2.046933965883464
| 54> H 2.3616277751140067 -1.8657750932970696 -0.6735610307452844
| 55> H 1.5892088714190546 -2.6729645260563033 0.6869464092900043
| 56> H 4.063653029815604 -2.9599394012614906 0.7856088532102777
| 57> H 3.416951445865714 -2.173385701824034 2.186380727096805
| 58> *
| 59>
| 60>                          ****END OF INPUT****

CARTESIAN COORDINATES (ANGSTROEM)
---------------------------------
  C      5.779058   -1.934805   -0.921481
  C      5.034142   -0.689293   -0.411297
  C      6.007679    0.498267   -0.504780
  N      4.530116   -0.877450    0.971505
  C      3.819557    0.301809    1.512612
  C      2.465407    0.606530    0.840091
  N      1.586986   -0.558640    0.736551
  C      0.203230   -0.503861    0.562848
  O     -0.449672   -1.554047    0.527987
  C     -0.518780    0.879328    0.560463
  C     -0.026431    2.022882   -0.328774
  C     -1.251673    2.940827   -0.487342
  C     -2.395577    2.216670    0.225110
  N     -1.960207    0.832385    0.256937
  C     -2.347667    0.117840   -0.895907
  O     -1.570615   -0.155041   -1.808445
  C     -3.790057   -0.225787   -1.024710
  C     -4.330290   -0.331053   -2.320367
  C     -5.677808   -0.623460   -2.514443
  C     -6.528256   -0.827396   -1.426597
  C     -5.978413   -0.744129   -0.140890
  N     -6.582277   -0.922725    1.084208
  C     -5.667167   -0.778308    2.089472
  C     -4.451289   -0.500219    1.509787
  C     -4.628575   -0.455354    0.093369
  C      2.240808   -1.835038    0.415890
  C      3.600165   -2.024074    1.113022
  H      6.561309   -2.246871   -0.220551
  H      5.100623   -2.778037   -1.082439
  H      6.257522   -1.735195   -1.887107
  H      4.207669   -0.492125   -1.104346
  H      6.812306    0.413774    0.234166
  H      5.498553    1.455263   -0.355670
  H      6.470485    0.546311   -1.497098
  H      3.635504    0.117035    2.580459
  H      4.452314    1.194884    1.500314
  H      1.963524    1.374536    1.434282
  H      2.621679    0.993642   -0.172404
  H     -0.463003    1.212170    1.608140
  H      0.312323    1.658867   -1.305089
  H      0.797465    2.587583    0.113790
  H     -1.477969    3.070220   -1.551991
  H     -1.084235    3.934895   -0.060969
  H     -2.490916    2.564972    1.259768
  H     -3.350874    2.361928   -0.287889
  H     -3.686426   -0.179521   -3.184933
  H     -6.070692   -0.697430   -3.525952
  H     -7.577583   -1.059249   -1.580214
  H     -7.558561   -1.149751    1.213018
  H     -5.952484   -0.900320    3.125591
  H     -3.522365   -0.357310    2.046934
  H      2.361628   -1.865775   -0.673561
  H      1.589209   -2.672965    0.686946
  H      4.063653   -2.959939    0.785609
  H      3.416951   -2.173386    2.186381

 Total Charge           Charge          ....    0
 Multiplicity           Mult            ....    1
 Number of Electrons    NEL             ....  198
 Basis Dimension        Dim             ....  518

ORBITAL ENERGIES
----------------

  NO   OCC          E(Eh)            E(eV)
   0   2.0000     -20.516085      -558.2710
   1   2.0000     -20.502837      -557.9105
   2   2.0000     -15.602808      -424.5740
   3   2.0000     -15.577068      -423.8736
   4   2.0000     -15.562777      -423.4847
   5   2.0000     -15.548591      -423.0987
   6   2.0000     -11.353866      -308.9544
   7   2.0000     -11.346633      -308.7576
   8   2.0000     -11.281942      -306.9972
   9   2.0000     -11.274181      -306.7861
  10   2.0000     -11.271838      -306.7223
  11   2.0000     -11.266005      -306.5636
  12   2.0000     -11.264648      -306.5267
  13   2.0000     -11.262328      -306.4635
  14   2.0000     -11.259326      -306.3818
  15   2.0000     -11.254008      -306.2371
  16   2.0000     -11.253068      -306.2115
  17   2.0000     -11.243942      -305.9632
  18   2.0000     -11.237524      -305.7886
  19   2.0000     -11.232535      -305.6528
  20   2.0000     -11.231090      -305.6135
  21   2.0000     -11.230935      -305.6093
  22   2.0000     -11.229737      -305.5767
  23   2.0000     -11.227285      -305.5099
  24   2.0000     -11.221736      -305.3590
  25   2.0000     -11.219746      -305.3048
  26   2.0000     -11.212364      -305.1039
  27   2.0000      -1.362063       -37.0636
  28   2.0000      -1.343121       -36.5482
  29   2.0000      -1.290233       -35.1090
  30   2.0000      -1.243245       -33.8304
  31   2.0000      -1.239612       -33.7316
  32   2.0000      -1.192360       -32.4458
  33   2.0000      -1.127341       -30.6765
  34   2.0000      -1.057035       -28.7634
  35   2.0000      -1.040321       -28.3086
  36   2.0000      -1.036950       -28.2168
  37   2.0000      -1.023149       -27.8413
  38   2.0000      -1.002397       -27.2766
  39   2.0000      -0.995063       -27.0770
  40   2.0000      -0.972465       -26.4621
  41   2.0000      -0.935812       -25.4648
  42   2.0000      -0.922236       -25.0953
  43   2.0000      -0.889686       -24.2096
  44   2.0000      -0.864777       -23.5318
  45   2.0000      -0.851126       -23.1603
  46   2.0000      -0.831934       -22.6381
  47   2.0000      -0.801370       -21.8064
  48   2.0000      -0.798588       -21.7307
  49   2.0000      -0.794167       -21.6104
  50   2.0000      -0.777158       -21.1475
  51   2.0000      -0.754922       -20.5425
  52   2.0000      -0.730074       -19.8663
  53   2.0000      -0.710610       -19.3367
  54   2.0000      -0.686980       -18.6937
  55   2.0000      -0.668030       -18.1780
  56   2.0000      -0.663117       -18.0443
  57   2.0000      -0.653518       -17.7831
  58   2.0000      -0.651748       -17.7350
  59   2.0000      -0.646027       -17.5793
  60   2.0000      -0.636580       -17.3222
  61   2.0000      -0.633812       -17.2469
  62   2.0000      -0.632301       -17.2058
  63   2.0000      -0.622475       -16.9384
  64   2.0000      -0.616052       -16.7636
  65   2.0000      -0.608565       -16.5599
  66   2.0000      -0.604210       -16.4414
  67   2.0000      -0.592757       -16.1297
  68   2.0000      -0.587779       -15.9943
  69   2.0000      -0.578744       -15.7484
  70   2.0000      -0.571309       -15.5461
  71   2.0000      -0.558614       -15.2007
  72   2.0000      -0.556661       -15.1475
  73   2.0000      -0.552223       -15.0267
  74   2.0000      -0.548048       -14.9131
  75   2.0000      -0.542124       -14.7519
  76   2.0000      -0.537888       -14.6367
  77   2.0000      -0.530960       -14.4482
  78   2.0000      -0.527131       -14.3440
  79   2.0000      -0.519269       -14.1300
  80   2.0000      -0.511901       -13.9295
  81   2.0000      -0.509368       -13.8606
  82   2.0000      -0.503249       -13.6941
  83   2.0000      -0.498308       -13.5596
  84   2.0000      -0.489339       -13.3156
  85   2.0000      -0.487237       -13.2584
  86   2.0000      -0.483471       -13.1559
  87   2.0000      -0.476621       -12.9695
  88   2.0000      -0.464787       -12.6475
  89   2.0000      -0.459704       -12.5092
  90   2.0000      -0.457694       -12.4545
  91   2.0000      -0.422770       -11.5042
  92   2.0000      -0.406585       -11.0637
  93   2.0000      -0.385237       -10.4828
  94   2.0000      -0.377728       -10.2785
  95   2.0000      -0.371565       -10.1108
  96   2.0000      -0.343064        -9.3352
  97   2.0000      -0.306504        -8.3404
  98   2.0000      -0.283601        -7.7172
  99   0.0000       0.087963         2.3936
 100   0.0000       0.152370         4.1462
 101   0.0000       0.157493         4.2856
 102   0.0000       0.171437         4.6650
 103   0.0000       0.175714         4.7814

MULLIKEN ATOMIC CHARGES
-----------------------
   0 C :    0.001203
   1 C :   -0.020524
   2 C :    0.002039
   3 N :   -0.611602
   4 C :    0.175426
   5 C :    0.177036
   6 N :   -0.705777
   7 C :    0.564906
   8 O :   -0.455037
   9 C :    0.014991
  10 C :   -0.011206
  11 C :   -0.049106
  12 C :    0.179951
  13 N :   -0.647646
  14 C :    0.561394
  15 O :   -0.416243
  16 C :   -0.197219
  17 C :    0.021833
  18 C :   -0.039954
  19 C :   -0.042063
  20 C :    0.153358
  21 N :   -0.339374
  22 C :    0.173765
  23 C :   -0.083739
  24 C :   -0.028116
  25 C :    0.198481
  26 C :    0.133751
  27 H :    0.038853
  28 H :    0.033178
  29 H :    0.029882
  30 H :    0.024602
  31 H :    0.039132
  32 H :    0.025315
  33 H :    0.030573
  34 H :    0.033608
  35 H :    0.042766
  36 H :    0.043844
  37 H :    0.038108
  38 H :    0.060104
  39 H :    0.066794
  40 H :    0.032161
  41 H :    0.046241
  42 H :    0.033654
  43 H :    0.033752
  44 H :    0.071697
  45 H :    0.053856
  46 H :    0.039651
  47 H :    0.023396
  48 H :    0.154983
  49 H :    0.055168
  50 H :    0.047153
  51 H :    0.031961
  52 H :    0.078773
  53 H :    0.044962
  54 H :    0.035306
Sum of atomic charges:    0.0000000

LOEWDIN ATOMIC CHARGES
----------------------
   0 C :   -0.031733
   1 C :    0.040768
   2 C :   -0.032645
   3 N :   -0.198541
   4 C :    0.060683
   5 C :    0.061143
   6 N :   -0.157795
   7 C :    0.211044
   8 O :   -0.308386
   9 C :    0.032782
  10 C :   -0.023408
  11 C :   -0.026451
  12 C :    0.075856
  13 N :   -0.155591
  14 C :    0.207463
  15 O :   -0.276383
  16 C :   -0.072896
  17 C :    0.000903
  18 C :   -0.039547
  19 C :   -0.031853
  20 C :    0.025036
  21 N :   -0.000496
  22 C :    0.049777
  23 C :   -0.090695
  24 C :   -0.031441
  25 C :    0.071492
  26 C :    0.056669
  27 H :    0.020500
  28 H :    0.012359
  29 H :    0.018735
  30 H :   -0.007905
  31 H :    0.020502
  32 H :    0.008917
  33 H :    0.018920
  34 H :    0.015073
  35 H :    0.018145
  36 H :    0.015890
  37 H :    0.003438
  38 H :    0.028108
  39 H :    0.026731
  40 H :    0.010581
  41 H :    0.021816
  42 H :    0.014975
  43 H :    0.010828
  44 H :    0.026318
  45 H :    0.036035
  46 H :    0.026789
  47 H :    0.025317
  48 H :    0.085961
  49 H :    0.025827
  50 H :    0.027762
  51 H :    0.005827
  52 H :    0.033126
  53 H :    0.019055
  54 H :    0.014616

  Mayer bond orders larger than 0.100000
B(  0-C ,  1-C ) :   1.0368 B(  0-C , 27-H ) :   0.9783 B(  0-C , 28-H ) :   0.9842
B(  0-C , 29-H ) :   0.9857 B(  1-C ,  2-C ) :   1.0355 B(  1-C ,  3-N ) :   0.9133
B(  1-C , 30-H ) :   0.9613 B(  2-C , 31-H ) :   0.9782 B(  2-C , 32-H ) :   0.9842
B(  2-C , 33-H ) :   0.9858 B(  3-N ,  4-C ) :   0.9660 B(  3-N , 26-C ) :   0.9454
B(  4-C ,  5-C ) :   1.0261 B(  4-C , 34-H ) :   0.9732 B(  4-C , 35-H ) :   0.9829
B(  5-C ,  6-N ) :   0.8679 B(  5-C , 36-H ) :   0.9710 B(  5-C , 37-H ) :   0.9666
B(  6-N ,  7-C ) :   1.0936 B(  6-N , 25-C ) :   0.8542 B(  7-C ,  8-O ) :   1.9293
B(  7-C ,  9-C ) :   0.9571 B(  9-C , 10-C ) :   1.0113 B(  9-C , 13-N ) :   0.9297
B(  9-C , 38-H ) :   0.9406 B( 10-C , 11-C ) :   1.0568 B( 10-C , 39-H ) :   0.9586
B( 10-C , 40-H ) :   0.9675 B( 11-C , 12-C ) :   1.0439 B( 11-C , 41-H ) :   0.9619
B( 11-C , 42-H ) :   0.9712 B( 12-C , 13-N ) :   0.9093 B( 12-C , 43-H ) :   0.9690
B( 12-C , 44-H ) :   0.9781 B( 13-N , 14-C ) :   1.0124 B( 14-C , 15-O ) :   1.9904
B( 14-C , 16-C ) :   0.9990 B( 16-C , 17-C ) :   1.4892 B( 16-C , 24-C ) :   1.3056
B( 17-C , 18-C ) :   1.3548 B( 17-C , 45-H ) :   1.0005 B( 18-C , 19-C ) :   1.4603
B( 18-C , 46-H ) :   0.9983 B( 19-C , 20-C ) :   1.3330 B( 19-C , 47-H ) :   1.0075
B( 20-C , 21-N ) :   1.0956 B( 20-C , 24-C ) :   1.3148 B( 21-N , 22-C ) :   1.1083
B( 21-N , 48-H ) :   0.9471 B( 22-C , 23-C ) :   1.6366 B( 22-C , 49-H ) :   0.9941
B( 23-C , 24-C ) :   1.2230 B( 23-C , 50-H ) :   1.0083 B( 25-C , 26-C ) :   1.0328
B( 25-C , 51-H ) :   0.9772 B( 25-C , 52-H ) :   0.9699 B( 26-C , 53-H ) :   0.9839
B( 26-C , 54-H ) :   0.9747

FINAL SINGLE POINT ENERGY     -1178.157472415011

DIPOLE MOMENT
-------------
                                X             Y             Z
Electronic contribution:    -40.93555      -5.56957       0.43862
Nuclear contribution   :     40.33903       6.98838       0.41956
                        -----------------------------------------
Total Dipole Moment    :     -0.59653       1.41882       0.85818
                        -----------------------------------------
Magnitude (a.u.)       :      1.76221
Magnitude (Debye)      :      4.47917

Rotational constants in cm-1:     0.015801     0.002686     0.002647
Rotational constants in MHz :   473.712742    80.522877    79.351593

                             ****ORCA TERMINATED NORMALLY****
TOTAL RUN TIME: 0 days 0 hours 0 minutes 48 seconds 753 msec
