                         Program Version 5.0.3 -  RELEASE  -
|  1> !RHF def2-SVP TightSCF PAL16
|  2> *xyz 0 1
|  3> O -1.0486157100005016 -0.633305834959821 1.8404414215096538
|  4> C -0.45086736649936154 -0.23791439453423624 0.5780445778936696
|  5> C -0.8506145811229693 1.2613960850374013 0.4096876762987566
|  6> N -1.8912901594296814 1.736837682639656 1.0706912643755189
|  7> C -1.9484942635176388 3.173889847803772 0.6706190852738843
|  8> C -0.6061713733241275 3.4968250534664262 0.00986958729364156
|  9> N -0.15932043864392195 2.1788647899806275 -0.35621109704582876
| 10> C 1.0760064376221905 -0.3803125456367117 0.7075430922448657
| 11> C 1.8969444832715308 -0.5650822705398 -0.42248264789924594
| 12> C 3.2865414457757702 -0.6567067252812206 -0.29757614165503615
| 13> C 3.877730644369971 -0.5558889824792398 0.9580721554799785
| 14> Cl 5.587657685681423 -0.6648373338248879 1.1103432507456656
| 15> C 3.0923047033261737 -0.3600037616576054 2.0894731486915945
| 16> C 1.7030133258929543 -0.26833447573923136 1.9638177995463257
| 17> C -1.0608859661629975 -1.1195983909056708 -0.524739656859751
| 18> C -1.3726152935363813 -2.4572120382973237 -0.2580355161819562
| 19> C -1.8913303280268 -3.257080074927769 -1.2732144926891598
| 20> C -2.082611353644699 -2.714320196318076 -2.535850561568331
| 21> C -1.737845662570951 -1.3899488214896039 -2.733859361413863
| 22> N -1.2249440884708165 -0.5927364169849043 -1.7707120247178396
| 23> H -1.7976092121918925 -0.006814524083285254 1.945684001922237
| 24> H -2.7786075190391384 3.3107016655902557 -0.03150682067633738
| 25> H -2.123269148308457 3.8079176145962044 1.5451744283813442
| 26> H -0.7133584779897401 4.15871476957827 -0.8532964377645827
| 27> H 0.08608441191400512 3.94462161125677 0.7303858576547483
| 28> H 0.8297527623948979 2.022654435848813 -0.5115544993397427
| 29> H 1.4617920720912836 -0.6384050124670536 -1.4188388136758514
| 30> H 3.897356581335701 -0.8070314942951111 -1.1838994484374155
| 31> H 3.5495168803914465 -0.2787642491139402 3.071971917218858
| 32> H 1.1061291825946926 -0.11284525898788997 2.8618819352826357
| 33> H -1.2131226862270388 -2.8735630097505913 0.7330709548883225
| 34> H -2.143617691275982 -4.294896605191378 -1.0754234846518145
| 35> H -2.488890466200673 -3.3088960788846777 -3.3459188920358076
| 36> H -1.8667488304765514 -0.9179250594487866 -3.703652258090485
| 37> *
| 38>
| 39>                          ****END OF INPUT****

CARTESIAN COORDINATES (ANGSTROEM)
---------------------------------
  O     -1.048616   -0.633306    1.840441
  C     -0.450867   -0.237914    0.578045
  C     -0.850615    1.261396    0.409688
  N     -1.891290    1.736838    1.070691
  C     -1.948494    3.173890    0.670619
  C     -0.606171    3.496825    0.009870
  N     -0.159320    2.178865   -0.356211
  C      1.076006   -0.380313    0.707543
  C      1.896944   -0.565082   -0.422483
  C      3.286541   -0.656707   -0.297576
  C      3.877731   -0.555889    0.958072
  Cl     5.587658   -0.664837    1.110343
  C      3.092305   -0.360004    2.089473
  C      1.703013   -0.268334    1.963818
  C     -1.060886   -1.119598   -0.524740
  C     -1.372615   -2.457212   -0.258036
  C     -1.891330   -3.257080   -1.273214
  C     -2.082611   -2.714320   -2.535851
  C     -1.737846   -1.389949   -2.733859
  N     -1.224944   -0.592736   -1.770712
  H     -1.797609   -0.006815    1.945684
  H     -2.778608    3.310702   -0.031507
  H     -2.123269    3.807918    1.545174
  H     -0.713358    4.158715   -0.853296
  H      0.086084    3.944622    0.730386
  H      0.829753    2.022654   -0.511554
  H      1.461792   -0.638405   -1.418839
  H      3.897357   -0.807031   -1.183899
  H      3.549517   -0.278764    3.071972
  H      1.106129   -0.112845    2.861882
  H     -1.213123   -2.873563    0.733071
  H     -2.143618   -4.294897   -1.075423
  H     -2.488890   -3.308896   -3.345919
  H     -1.866749   -0.917925   -3.703652

 Total Charge           Charge          ....    0
 Multiplicity           Mult            ....    1
 Number of Electrons    NEL             ....  150
 Basis Dimension        Dim             ....  354

ORBITAL ENERGIES
----------------

  NO   OCC          E(Eh)            E(eV)
   0   2.0000    -104.797026     -2851.6721
   1   2.0000     -20.549353      -559.1763
   2   2.0000     -15.576626      -423.8615
   3   2.0000     -15.573344      -423.7722
   4   2.0000     -15.539366      -422.8476
   5   2.0000     -11.329244      -308.2844
   6   2.0000     -11.326254      -308.2030
   7   2.0000     -11.305128      -307.6282
   8   2.0000     -11.294492      -307.3387
   9   2.0000     -11.283672      -307.0443
  10   2.0000     -11.266691      -306.5822
  11   2.0000     -11.264896      -306.5334
  12   2.0000     -11.264569      -306.5245
  13   2.0000     -11.258735      -306.3658
  14   2.0000     -11.256871      -306.3150
  15   2.0000     -11.256085      -306.2936
  16   2.0000     -11.255384      -306.2746
  17   2.0000     -11.254983      -306.2637
  18   2.0000     -11.248349      -306.0831
  19   2.0000     -11.247046      -306.0477
  20   2.0000     -10.560951      -287.3781
  21   2.0000      -8.036088      -218.6731
  22   2.0000      -8.032460      -218.5744
  23   2.0000      -8.032417      -218.5732
  24   2.0000      -1.348213       -36.6867
  25   2.0000      -1.289419       -35.0869
  26   2.0000      -1.246411       -33.9166
  27   2.0000      -1.188606       -32.3436
  28   2.0000      -1.133258       -30.8375
  29   2.0000      -1.122435       -30.5430
  30   2.0000      -1.081769       -29.4364
  31   2.0000      -1.055921       -28.7331
  32   2.0000      -1.022042       -27.8112
  33   2.0000      -1.015969       -27.6459
  34   2.0000      -0.995280       -27.0830
  35   2.0000      -0.922435       -25.1007
  36   2.0000      -0.857629       -23.3373
  37   2.0000      -0.847945       -23.0738
  38   2.0000      -0.835193       -22.7268
  39   2.0000      -0.831923       -22.6378
  40   2.0000      -0.801438       -21.8082
  41   2.0000      -0.761620       -20.7247
  42   2.0000      -0.742854       -20.2141
  43   2.0000      -0.723249       -19.6806
  44   2.0000      -0.692612       -18.8469
  45   2.0000      -0.673464       -18.3259
  46   2.0000      -0.668776       -18.1983
  47   2.0000      -0.660880       -17.9835
  48   2.0000      -0.642946       -17.4955
  49   2.0000      -0.639580       -17.4038
  50   2.0000      -0.617058       -16.7910
  51   2.0000      -0.611661       -16.6441
  52   2.0000      -0.606234       -16.4965
  53   2.0000      -0.601282       -16.3617
  54   2.0000      -0.581435       -15.8217
  55   2.0000      -0.567254       -15.4358
  56   2.0000      -0.552775       -15.0418
  57   2.0000      -0.544718       -14.8225
  58   2.0000      -0.541362       -14.7312
  59   2.0000      -0.537496       -14.6260
  60   2.0000      -0.530994       -14.4491
  61   2.0000      -0.530974       -14.4486
  62   2.0000      -0.513481       -13.9725
  63   2.0000      -0.503796       -13.7090
  64   2.0000      -0.486769       -13.2457
  65   2.0000      -0.467999       -12.7349
  66   2.0000      -0.461729       -12.5643
  67   2.0000      -0.453649       -12.3444
  68   2.0000      -0.431915       -11.7530
  69   2.0000      -0.421827       -11.4785
  70   2.0000      -0.386267       -10.5109
  71   2.0000      -0.357168        -9.7190
  72   2.0000      -0.350190        -9.5291
  73   2.0000      -0.340732        -9.2718
  74   2.0000      -0.334068        -9.0904
  75   0.0000       0.097422         2.6510
  76   0.0000       0.107595         2.9278
  77   0.0000       0.118968         3.2373
  78   0.0000       0.119941         3.2638
  79   0.0000       0.175267         4.7693

MULLIKEN ATOMIC CHARGES
-----------------------
   0 O :   -0.469598
   1 C :    0.383966
   2 C :    0.338680
   3 N :   -0.552691
   4 C :    0.159653
   5 C :    0.155441
   6 N :   -0.436457
   7 C :   -0.202528
   8 C :   -0.023994
   9 C :   -0.008784
  10 C :    0.042311
  11 Cl:   -0.134948
  12 C :   -0.013792
  13 C :    0.021390
  14 C :    0.042140
  15 C :   -0.024760
  16 C :    0.043049
  17 C :   -0.113708
  18 C :    0.162191
  19 N :   -0.381002
  20 H :    0.231242
  21 H :    0.046055
  22 H :    0.037763
  23 H :    0.041628
  24 H :    0.031842
  25 H :    0.166549
  26 H :    0.067501
  27 H :    0.048642
  28 H :    0.050091
  29 H :    0.067660
  30 H :    0.063402
  31 H :    0.055608
  32 H :    0.051641
  33 H :    0.053822
Sum of atomic charges:   -0.0000000

LOEWDIN ATOMIC CHARGES
----------------------
   0 O :   -0.185995
   1 C :    0.100235
   2 C :    0.136769
   3 N :   -0.280411
   4 C :    0.060787
   5 C :    0.062327
   6 N :   -0.090588
   7 C :   -0.047553
   8 C :   -0.013605
   9 C :   -0.042532
  10 C :   -0.111313
  11 Cl:    0.095628
  12 C :   -0.039956
  13 C :    0.008078
  14 C :    0.040402
  15 C :   -0.034781
  16 C :    0.025161
  17 C :   -0.063271
  18 C :    0.057476
  19 N :   -0.152262
  20 H :    0.083057
  21 H :    0.015020
  22 H :    0.013441
  23 H :    0.015228
  24 H :    0.005222
  25 H :    0.074631
  26 H :    0.034975
  27 H :    0.033548
  28 H :    0.034134
  29 H :    0.039153
  30 H :    0.038572
  31 H :    0.033848
  32 H :    0.031408
  33 H :    0.023164

  Mayer bond orders larger than 0.100000
B(  0-O ,  1-C ) :   0.9774 B(  0-O , 20-H ) :   0.9227 B(  1-C ,  2-C ) :   0.9495
B(  1-C ,  7-C ) :   0.9681 B(  1-C , 14-C ) :   0.9671 B(  2-C ,  3-N ) :   1.8258
B(  2-C ,  6-N ) :   1.1162 B(  3-N ,  4-C ) :   0.9483 B(  4-C ,  5-C ) :   1.0448
B(  4-C , 21-H ) :   0.9681 B(  4-C , 22-H ) :   0.9824 B(  5-C ,  6-N ) :   0.9233
B(  5-C , 23-H ) :   0.9757 B(  5-C , 24-H ) :   0.9767 B(  6-N , 25-H ) :   0.9336
B(  7-C ,  8-C ) :   1.4102 B(  7-C , 13-C ) :   1.4213 B(  8-C ,  9-C ) :   1.4243
B(  8-C , 26-H ) :   0.9924 B(  9-C , 10-C ) :   1.4040 B(  9-C , 27-H ) :   1.0037
B( 10-C , 11-Cl) :   0.9521 B( 10-C , 12-C ) :   1.3984 B( 12-C , 13-C ) :   1.4198
B( 12-C , 28-H ) :   1.0047 B( 13-C , 29-H ) :   0.9953 B( 14-C , 15-C ) :   1.4286
B( 14-C , 19-N ) :   1.4487 B( 15-C , 16-C ) :   1.4321 B( 15-C , 30-H ) :   0.9851
B( 16-C , 17-C ) :   1.4083 B( 16-C , 31-H ) :   0.9943 B( 17-C , 18-C ) :   1.4112
B( 17-C , 32-H ) :   0.9912 B( 18-C , 19-N ) :   1.4476 B( 18-C , 33-H ) :   1.0006

FINAL SINGLE POINT ENERGY     -1273.101476397688

DIPOLE MOMENT
-------------
                                X             Y             Z
Electronic contribution:     18.23521      -6.80574       3.67150
Nuclear contribution   :    -18.30673       6.94166      -4.47166
                        -----------------------------------------
Total Dipole Moment    :     -0.07151       0.13593      -0.80016
                        -----------------------------------------
Magnitude (a.u.)       :      0.81477
Magnitude (Debye)      :      2.07098

Rotational constants in cm-1:     0.013573     0.007205     0.005592
Rotational constants in MHz :   406.893747   216.001299   167.642177

                             ****ORCA TERMINATED NORMALLY****
TOTAL RUN TIME: 0 days 0 hours 0 minutes 20 seconds 97 msec
