                         Program Version 5.0.3 -  RELEASE  -
|  1> !RHF def2-SVP TightSCF PAL16
|  2> *xyz 0 1
|  3> O 1.4498821038665466 -1.403576514178329 -0.9506957770140125
|  4> C 0.8394879943263568 -0.3709426739610814 -0.715026987845396
|  5> C 1.4683728171695705 1.0013634752734166 -0.7439335334483187
|  6> C 2.320477039921701 1.3477038185149697 0.4824848956259054
|  7> C 3.5078573833644353 0.4457845317709315 0.8011234093312398
|  8> C 4.421761181885704 0.06299745394141562 -0.3479705100594866
|  9> C 5.097240743822028 -1.1638885491689683 0.21686746692986575
| 10> C 3.9782759484577137 -1.822383861731077 1.000533219395532
| 11> O 3.065213728878421 -0.7832847895553472 1.3933950919237361
| 12> C 0.28471256445446813 1.9411960140210274 -0.7532325840231866
| 13> O 0.3903070254584624 3.1469744449496155 -0.929473731929261
| 14> N -0.8488706493399227 1.171133149755069 -0.4986738553385397
| 15> C -2.1874300845969086 1.613308777016338 -0.3762613798817752
| 16> C -2.5177216517812586 2.9780059824105707 -0.44141411388132323
| 17> C -3.838238754333775 3.4059661196424855 -0.3177269192920965
| 18> C -4.845842076455966 2.4750079212567626 -0.1259773865923264
| 19> C -4.532071606972882 1.115869001370282 -0.0570139319787319
| 20> C -3.204914238373389 0.6501515184855969 -0.17839195742380984
| 21> C -2.8495679530172127 -0.7918245492848377 -0.10853046262938776
| 22> C -3.810086154994753 -1.807086844788072 0.09024166737267802
| 23> C -3.4543817557515952 -3.1562759620486607 0.15510175646876675
| 24> C -2.1255350981883097 -3.52590162200161 0.026264364796840342
| 25> C -1.1535859876581436 -2.5471451684547963 -0.17107437560450003
| 26> C -1.4984323514489688 -1.1866627153431217 -0.246783691486084
| 27> N -0.515533481806325 -0.18800046489671057 -0.4400330655895722
| 28> H 2.0098249139422038 1.125137981765284 -1.6873088455237386
| 29> H 2.7012191353118147 2.369197046567258 0.347932451731095
| 30> H 1.6715004553719104 1.3772009845948345 1.3691492557881462
| 31> H 4.105087545035549 0.9469965219348546 1.5750877565337413
| 32> H 5.123340892075394 0.8579940700535561 -0.6151812982444848
| 33> H 3.8640930721096987 -0.21829201500158255 -1.2462778178858924
| 34> H 5.9023488107599 -0.8641911933340014 0.8984298377693896
| 35> H 5.526433879513328 -1.819948347608307 -0.5450358363061927
| 36> H 3.4295539300996283 -2.5417026140963705 0.38499761661873405
| 37> H 4.345341212139715 -2.3407330696495796 1.8910775002641493
| 38> H -1.761700082421361 3.7436890951153963 -0.5861136501351165
| 39> H -4.073085638516106 4.466059021687536 -0.3710597817143172
| 40> H -5.878444920129544 2.801053070033302 -0.02852027453882408
| 41> H -5.362077357455046 0.4329162199727848 0.09488838830401002
| 42> H -4.8650497981765914 -1.5771918706426717 0.20203228976965873
| 43> H -4.21844654090021 -3.913986203424152 0.3102854201275647
| 44> H -1.8384377991634446 -4.572831453910225 0.0820856618382828
| 45> H -0.12287839648356268 -2.8798557370533873 -0.2517553939774174
| 46> *
| 47>
| 48>                          ****END OF INPUT****

CARTESIAN COORDINATES (ANGSTROEM)
---------------------------------
  O      1.449882   -1.403577   -0.950696
  C      0.839488   -0.370943   -0.715027
  C      1.468373    1.001363   -0.743934
  C      2.320477    1.347704    0.482485
  C      3.507857    0.445785    0.801123
  C      4.421761    0.062997   -0.347971
  C      5.097241   -1.163889    0.216867
  C      3.978276   -1.822384    1.000533
  O      3.065214   -0.783285    1.393395
  C      0.284713    1.941196   -0.753233
  O      0.390307    3.146974   -0.929474
  N     -0.848871    1.171133   -0.498674
  C     -2.187430    1.613309   -0.376261
  C     -2.517722    2.978006   -0.441414
  C     -3.838239    3.405966   -0.317727
  C     -4.845842    2.475008   -0.125977
  C     -4.532072    1.115869   -0.057014
  C     -3.204914    0.650152   -0.178392
  C     -2.849568   -0.791825   -0.108530
  C     -3.810086   -1.807087    0.090242
  C     -3.454382   -3.156276    0.155102
  C     -2.125535   -3.525902    0.026264
  C     -1.153586   -2.547145   -0.171074
  C     -1.498432   -1.186663   -0.246784
  N     -0.515533   -0.188000   -0.440033
  H      2.009825    1.125138   -1.687309
  H      2.701219    2.369197    0.347932
  H      1.671500    1.377201    1.369149
  H      4.105088    0.946997    1.575088
  H      5.123341    0.857994   -0.615181
  H      3.864093   -0.218292   -1.246278
  H      5.902349   -0.864191    0.898430
  H      5.526434   -1.819948   -0.545036
  H      3.429554   -2.541703    0.384998
  H      4.345341   -2.340733    1.891078
  H     -1.761700    3.743689   -0.586114
  H     -4.073086    4.466059   -0.371060
  H     -5.878445    2.801053   -0.028520
  H     -5.362077    0.432916    0.094888
  H     -4.865050   -1.577192    0.202032
  H     -4.218447   -3.913986    0.310285
  H     -1.838438   -4.572831    0.082086
  H     -0.122878   -2.879856   -0.251755

 Total Charge           Charge          ....    0
 Multiplicity           Mult            ....    1
 Number of Electrons    NEL             ....  176
 Basis Dimension        Dim             ....  440

ORBITAL ENERGIES
----------------

  NO   OCC          E(Eh)            E(eV)
   0   2.0000     -20.547570      -559.1278
   1   2.0000     -20.545099      -559.0606
   2   2.0000     -20.536758      -558.8336
   3   2.0000     -15.666825      -426.3160
   4   2.0000     -15.664438      -426.2510
   5   2.0000     -11.386917      -309.8538
   6   2.0000     -11.385909      -309.8263
   7   2.0000     -11.314350      -307.8791
   8   2.0000     -11.313151      -307.8465
   9   2.0000     -11.284133      -307.0569
  10   2.0000     -11.270231      -306.6786
  11   2.0000     -11.269171      -306.6497
  12   2.0000     -11.269047      -306.6464
  13   2.0000     -11.265716      -306.5557
  14   2.0000     -11.256093      -306.2939
  15   2.0000     -11.255405      -306.2752
  16   2.0000     -11.254246      -306.2436
  17   2.0000     -11.249495      -306.1143
  18   2.0000     -11.248557      -306.0888
  19   2.0000     -11.246524      -306.0335
  20   2.0000     -11.245311      -306.0005
  21   2.0000     -11.244608      -305.9813
  22   2.0000     -11.243625      -305.9546
  23   2.0000     -11.227062      -305.5039
  24   2.0000     -11.225781      -305.4690
  25   2.0000      -1.429356       -38.8948
  26   2.0000      -1.382609       -37.6227
  27   2.0000      -1.354116       -36.8474
  28   2.0000      -1.349614       -36.7249
  29   2.0000      -1.192303       -32.4442
  30   2.0000      -1.179352       -32.0918
  31   2.0000      -1.120039       -30.4778
  32   2.0000      -1.111757       -30.2525
  33   2.0000      -1.065083       -28.9824
  34   2.0000      -1.057057       -28.7640
  35   2.0000      -1.035113       -28.1669
  36   2.0000      -0.997719       -27.1493
  37   2.0000      -0.996556       -27.1177
  38   2.0000      -0.984016       -26.7764
  39   2.0000      -0.925330       -25.1795
  40   2.0000      -0.882945       -24.0262
  41   2.0000      -0.870832       -23.6966
  42   2.0000      -0.846132       -23.0244
  43   2.0000      -0.814602       -22.1665
  44   2.0000      -0.807643       -21.9771
  45   2.0000      -0.800381       -21.7795
  46   2.0000      -0.779409       -21.2088
  47   2.0000      -0.765472       -20.8295
  48   2.0000      -0.757411       -20.6102
  49   2.0000      -0.712180       -19.3794
  50   2.0000      -0.704366       -19.1668
  51   2.0000      -0.697079       -18.9685
  52   2.0000      -0.686568       -18.6825
  53   2.0000      -0.671143       -18.2627
  54   2.0000      -0.664191       -18.0736
  55   2.0000      -0.655715       -17.8429
  56   2.0000      -0.646650       -17.5962
  57   2.0000      -0.639132       -17.3917
  58   2.0000      -0.631458       -17.1828
  59   2.0000      -0.625608       -17.0237
  60   2.0000      -0.620736       -16.8911
  61   2.0000      -0.608731       -16.5644
  62   2.0000      -0.601881       -16.3780
  63   2.0000      -0.599511       -16.3135
  64   2.0000      -0.594605       -16.1800
  65   2.0000      -0.577405       -15.7120
  66   2.0000      -0.565160       -15.3788
  67   2.0000      -0.560856       -15.2617
  68   2.0000      -0.543129       -14.7793
  69   2.0000      -0.538331       -14.6487
  70   2.0000      -0.532383       -14.4869
  71   2.0000      -0.527887       -14.3645
  72   2.0000      -0.513164       -13.9639
  73   2.0000      -0.511092       -13.9075
  74   2.0000      -0.509023       -13.8512
  75   2.0000      -0.507462       -13.8088
  76   2.0000      -0.493881       -13.4392
  77   2.0000      -0.488039       -13.2802
  78   2.0000      -0.470478       -12.8024
  79   2.0000      -0.470250       -12.7962
  80   2.0000      -0.458534       -12.4773
  81   2.0000      -0.425263       -11.5720
  82   2.0000      -0.423504       -11.5241
  83   2.0000      -0.403977       -10.9928
  84   2.0000      -0.394370       -10.7313
  85   2.0000      -0.344350        -9.3703
  86   2.0000      -0.324711        -8.8358
  87   2.0000      -0.279599        -7.6083
  88   0.0000       0.071828         1.9545
  89   0.0000       0.096879         2.6362
  90   0.0000       0.126511         3.4425
  91   0.0000       0.154343         4.1999
  92   0.0000       0.168435         4.5833

MULLIKEN ATOMIC CHARGES
-----------------------
   0 O :   -0.422652
   1 C :    0.634200
   2 C :   -0.343410
   3 C :    0.066672
   4 C :    0.188063
   5 C :   -0.046073
   6 C :   -0.128524
   7 C :    0.326155
   8 O :   -0.625078
   9 C :    0.588778
  10 O :   -0.420816
  11 N :   -0.440714
  12 C :    0.282714
  13 C :   -0.105109
  14 C :    0.001860
  15 C :   -0.034324
  16 C :   -0.032914
  17 C :   -0.045287
  18 C :   -0.047036
  19 C :   -0.032552
  20 C :   -0.035153
  21 C :    0.001361
  22 C :   -0.097592
  23 C :    0.284110
  24 N :   -0.439358
  25 H :    0.107844
  26 H :    0.070464
  27 H :    0.058041
  28 H :    0.021388
  29 H :    0.042532
  30 H :    0.056008
  31 H :    0.036445
  32 H :    0.047627
  33 H :    0.040406
  34 H :    0.021720
  35 H :    0.082839
  36 H :    0.049440
  37 H :    0.041259
  38 H :    0.037765
  39 H :    0.037099
  40 H :    0.040773
  41 H :    0.048788
  42 H :    0.082241
Sum of atomic charges:   -0.0000000

LOEWDIN ATOMIC CHARGES
----------------------
   0 O :   -0.270535
   1 C :    0.204090
   2 C :   -0.061511
   3 C :    0.005859
   4 C :    0.108521
   5 C :   -0.029085
   6 C :   -0.031639
   7 C :    0.136409
   8 O :   -0.276028
   9 C :    0.200121
  10 O :   -0.279593
  11 N :   -0.030284
  12 C :    0.059509
  13 C :   -0.034660
  14 C :   -0.007724
  15 C :   -0.034749
  16 C :   -0.004770
  17 C :   -0.042962
  18 C :   -0.044729
  19 C :   -0.004888
  20 C :   -0.035525
  21 C :   -0.007265
  22 C :   -0.031794
  23 C :    0.061630
  24 N :   -0.030456
  25 H :    0.055340
  26 H :    0.036041
  27 H :    0.031671
  28 H :    0.007100
  29 H :    0.019146
  30 H :    0.020042
  31 H :    0.014779
  32 H :    0.021911
  33 H :    0.009059
  34 H :    0.004751
  35 H :    0.042180
  36 H :    0.032599
  37 H :    0.028405
  38 H :    0.028164
  39 H :    0.027854
  40 H :    0.028177
  41 H :    0.032400
  42 H :    0.042437

  Mayer bond orders larger than 0.100000
B(  0-O ,  1-C ) :   1.9505 B(  1-C ,  2-C ) :   0.9216 B(  1-C , 24-N ) :   1.0177
B(  2-C ,  3-C ) :   0.9980 B(  2-C ,  9-C ) :   0.9416 B(  2-C , 25-H ) :   0.9165
B(  3-C ,  4-C ) :   1.0375 B(  3-C , 26-H ) :   0.9654 B(  3-C , 27-H ) :   0.9655
B(  4-C ,  5-C ) :   1.0066 B(  4-C ,  8-O ) :   0.8822 B(  4-C , 28-H ) :   0.9647
B(  5-C ,  6-C ) :   1.0424 B(  5-C , 29-H ) :   0.9721 B(  5-C , 30-H ) :   0.9584
B(  6-C ,  7-C ) :   1.0392 B(  6-C , 31-H ) :   0.9736 B(  6-C , 32-H ) :   0.9764
B(  7-C ,  8-O ) :   0.8645 B(  7-C , 33-H ) :   0.9721 B(  7-C , 34-H ) :   0.9809
B(  9-C , 10-O ) :   1.9797 B(  9-C , 11-N ) :   1.0291 B( 11-N , 12-C ) :   0.8761
B( 11-N , 24-N ) :   0.9323 B( 12-C , 13-C ) :   1.4345 B( 12-C , 17-C ) :   1.3719
B( 13-C , 14-C ) :   1.4079 B( 13-C , 35-H ) :   0.9931 B( 14-C , 15-C ) :   1.4009
B( 14-C , 36-H ) :   0.9992 B( 15-C , 16-C ) :   1.4359 B( 15-C , 37-H ) :   0.9977
B( 16-C , 17-C ) :   1.4336 B( 16-C , 38-H ) :   0.9972 B( 17-C , 18-C ) :   0.9877
B( 18-C , 19-C ) :   1.4321 B( 18-C , 23-C ) :   1.3729 B( 19-C , 20-C ) :   1.4374
B( 19-C , 39-H ) :   0.9971 B( 20-C , 21-C ) :   1.3995 B( 20-C , 40-H ) :   0.9977
B( 21-C , 22-C ) :   1.4105 B( 21-C , 41-H ) :   0.9992 B( 22-C , 23-C ) :   1.4347
B( 22-C , 42-H ) :   0.9928 B( 23-C , 24-N ) :   0.8767

FINAL SINGLE POINT ENERGY     -1100.493521153616

DIPOLE MOMENT
-------------
                                X             Y             Z
Electronic contribution:    -15.27976       3.91302      -3.70084
Nuclear contribution   :     15.00423      -4.17532       3.76916
                        -----------------------------------------
Total Dipole Moment    :     -0.27553      -0.26230       0.06832
                        -----------------------------------------
Magnitude (a.u.)       :      0.38650
Magnitude (Debye)      :      0.98242

Rotational constants in cm-1:     0.012782     0.005446     0.004010
Rotational constants in MHz :   383.193993   163.260920   120.220878

                             ****ORCA TERMINATED NORMALLY****
TOTAL RUN TIME: 0 days 0 hours 0 minutes 34 seconds 455 msec
