                         Program Version 5.0.3 -  RELEASE  -
|  1> !RHF def2-SVP TightSCF PAL16
|  2> *xyz 0 1
|  3> O -3.6457809468700875 -1.3251405351153935 1.4064738691489878
|  4> C -3.379657328609297 -0.10642286608269305 0.7043178379322511
|  5> C -4.227093301351823 -0.03860716918309575 -0.5730475901774479
|  6> N -5.591186220596048 0.3794461703681859 -0.30146531160847195
|  7> C -6.619519614678214 -0.41913328635405767 0.11188043994274828
|  8> C -7.700465393671194 0.4239710545483507 0.21967410157467365
|  9> N -7.354309001265424 1.7056500876544485 -0.1253122891791153
| 10> C -6.080113071202177 1.6468607904684165 -0.4405222280041844
| 11> C -1.8985151954864454 -0.03964482785344197 0.39294666978416526
| 12> C -1.1565627030460373 1.099767653465915 0.7321049239049361
| 13> C 0.20660582324345977 1.1737786099344814 0.435812883382916
| 14> C 0.8529307609241981 0.11308271805573049 -0.2096377472920554
| 15> C 2.330037930497606 0.18624945203124016 -0.5110334493344869
| 16> C 3.1700329693997586 -0.3650980857442984 0.6442062957428334
| 17> C 4.64626656139515 -0.29126366969292794 0.34201935302005315
| 18> C 5.2923722701552665 -1.3518568258795207 -0.30698730898321896
| 19> C 6.653972732052517 -1.2744848758173333 -0.603681094439447
| 20> C 7.380262700964063 -0.13625937734539245 -0.2586503479121168
| 21> C 6.745795119587535 0.9262303682929101 0.38218922062086325
| 22> C 5.384279068675041 0.8509827629029236 0.6798328112421628
| 23> C 0.11602353605338549 -1.0284250054269346 -0.5448175911472818
| 24> C -1.2465605305336054 -1.103108120546424 -0.24924947065391095
| 25> H -2.9223763346159677 -1.448465047923062 2.046777851594889
| 26> H -3.647908394654794 0.7105826844545438 1.3853272628608577
| 27> H -3.8151722147286864 0.6837166597552743 -1.2885077317918545
| 28> H -4.286463618043782 -1.0140605563868856 -1.070885423115168
| 29> H -6.498807700370221 -1.4770347897641398 0.30059869657673555
| 30> H -8.707973784654477 0.17687941881873367 0.5279098488189234
| 31> H -5.476059963264119 2.4823699872836498 -0.7698188192961555
| 32> H -1.6307637055844786 1.9424933831491134 1.2316794346970497
| 33> H 0.7627175903045702 2.067470135025409 0.712132475690977
| 34> H 2.605761464137522 1.227671570252453 -0.7234897239943725
| 35> H 2.5392155069004416 -0.36694770121640374 -1.4362068643916308
| 36> H 2.9606617910127 0.1880120305166987 1.5693655726549882
| 37> H 2.894547326616873 -1.4066019311756628 0.8564872043658073
| 38> H 4.738676375498121 -2.245749490367225 -0.584902187096969
| 39> H 7.148298438749096 -2.1026171641848492 -1.1047515391354288
| 40> H 8.440494547473051 -0.07695483009015064 -0.48979463251403216
| 41> H 7.311757466959132 1.8145772907311148 0.6500635359264879
| 42> H 4.902897526657696 1.6894170429053263 1.177965186549495
| 43> H 0.5994926154765067 -1.8686703525100172 -1.0390390186069898
| 44> H -1.7978110995065857 -2.0026633619548484 -0.5189509097715861
| 45> *
| 46>
| 47>                          ****END OF INPUT****

CARTESIAN COORDINATES (ANGSTROEM)
---------------------------------
  O     -3.645781   -1.325141    1.406474
  C     -3.379657   -0.106423    0.704318
  C     -4.227093   -0.038607   -0.573048
  N     -5.591186    0.379446   -0.301465
  C     -6.619520   -0.419133    0.111880
  C     -7.700465    0.423971    0.219674
  N     -7.354309    1.705650   -0.125312
  C     -6.080113    1.646861   -0.440522
  C     -1.898515   -0.039645    0.392947
  C     -1.156563    1.099768    0.732105
  C      0.206606    1.173779    0.435813
  C      0.852931    0.113083   -0.209638
  C      2.330038    0.186249   -0.511033
  C      3.170033   -0.365098    0.644206
  C      4.646267   -0.291264    0.342019
  C      5.292372   -1.351857   -0.306987
  C      6.653973   -1.274485   -0.603681
  C      7.380263   -0.136259   -0.258650
  C      6.745795    0.926230    0.382189
  C      5.384279    0.850983    0.679833
  C      0.116024   -1.028425   -0.544818
  C     -1.246561   -1.103108   -0.249249
  H     -2.922376   -1.448465    2.046778
  H     -3.647908    0.710583    1.385327
  H     -3.815172    0.683717   -1.288508
  H     -4.286464   -1.014061   -1.070885
  H     -6.498808   -1.477035    0.300599
  H     -8.707974    0.176879    0.527910
  H     -5.476060    2.482370   -0.769819
  H     -1.630764    1.942493    1.231679
  H      0.762718    2.067470    0.712132
  H      2.605761    1.227672   -0.723490
  H      2.539216   -0.366948   -1.436207
  H      2.960662    0.188012    1.569366
  H      2.894547   -1.406602    0.856487
  H      4.738676   -2.245749   -0.584902
  H      7.148298   -2.102617   -1.104752
  H      8.440495   -0.076955   -0.489795
  H      7.311757    1.814577    0.650064
  H      4.902898    1.689417    1.177965
  H      0.599493   -1.868670   -1.039039
  H     -1.797811   -2.002663   -0.518951

 Total Charge           Charge          ....    0
 Multiplicity           Mult            ....    1
 Number of Electrons    NEL             ....  156
 Basis Dimension        Dim             ....  408

ORBITAL ENERGIES
----------------

  NO   OCC          E(Eh)            E(eV)
   0   2.0000     -20.561045      -559.4945
   1   2.0000     -15.613055      -424.8528
   2   2.0000     -15.529927      -422.5908
   3   2.0000     -11.304565      -307.6128
   4   2.0000     -11.291886      -307.2678
   5   2.0000     -11.285768      -307.1014
   6   2.0000     -11.255764      -306.2849
   7   2.0000     -11.255002      -306.2642
   8   2.0000     -11.254726      -306.2567
   9   2.0000     -11.253220      -306.2157
  10   2.0000     -11.251324      -306.1641
  11   2.0000     -11.250520      -306.1422
  12   2.0000     -11.250159      -306.1324
  13   2.0000     -11.247443      -306.0585
  14   2.0000     -11.243851      -305.9607
  15   2.0000     -11.243446      -305.9497
  16   2.0000     -11.243324      -305.9464
  17   2.0000     -11.242293      -305.9184
  18   2.0000     -11.240707      -305.8752
  19   2.0000     -11.240648      -305.8736
  20   2.0000     -11.239104      -305.8316
  21   2.0000     -11.232468      -305.6510
  22   2.0000      -1.354869       -36.8679
  23   2.0000      -1.329165       -36.1684
  24   2.0000      -1.170202       -31.8428
  25   2.0000      -1.162057       -31.6212
  26   2.0000      -1.149524       -31.2801
  27   2.0000      -1.085007       -29.5245
  28   2.0000      -1.045862       -28.4594
  29   2.0000      -1.018520       -27.7153
  30   2.0000      -1.011651       -27.5284
  31   2.0000      -1.007874       -27.4257
  32   2.0000      -0.984055       -26.7775
  33   2.0000      -0.958920       -26.0935
  34   2.0000      -0.893448       -24.3120
  35   2.0000      -0.854357       -23.2482
  36   2.0000      -0.838854       -22.8264
  37   2.0000      -0.825408       -22.4605
  38   2.0000      -0.799412       -21.7531
  39   2.0000      -0.795788       -21.6545
  40   2.0000      -0.787436       -21.4272
  41   2.0000      -0.769627       -20.9426
  42   2.0000      -0.724304       -19.7093
  43   2.0000      -0.715807       -19.4781
  44   2.0000      -0.700371       -19.0581
  45   2.0000      -0.686384       -18.6775
  46   2.0000      -0.662235       -18.0203
  47   2.0000      -0.651847       -17.7376
  48   2.0000      -0.641250       -17.4493
  49   2.0000      -0.634253       -17.2589
  50   2.0000      -0.631280       -17.1780
  51   2.0000      -0.613366       -16.6905
  52   2.0000      -0.603811       -16.4305
  53   2.0000      -0.602194       -16.3865
  54   2.0000      -0.593828       -16.1589
  55   2.0000      -0.587576       -15.9888
  56   2.0000      -0.584334       -15.9005
  57   2.0000      -0.575942       -15.6722
  58   2.0000      -0.565936       -15.3999
  59   2.0000      -0.564524       -15.3615
  60   2.0000      -0.561079       -15.2677
  61   2.0000      -0.549137       -14.9428
  62   2.0000      -0.533077       -14.5058
  63   2.0000      -0.519254       -14.1296
  64   2.0000      -0.508568       -13.8388
  65   2.0000      -0.502796       -13.6818
  66   2.0000      -0.495226       -13.4758
  67   2.0000      -0.494035       -13.4434
  68   2.0000      -0.485707       -13.2168
  69   2.0000      -0.478481       -13.0201
  70   2.0000      -0.460585       -12.5331
  71   2.0000      -0.422124       -11.4866
  72   2.0000      -0.379344       -10.3225
  73   2.0000      -0.353210        -9.6113
  74   2.0000      -0.342515        -9.3203
  75   2.0000      -0.341989        -9.3060
  76   2.0000      -0.329102        -8.9553
  77   2.0000      -0.309533        -8.4228
  78   0.0000       0.110556         3.0084
  79   0.0000       0.112599         3.0640
  80   0.0000       0.125288         3.4093
  81   0.0000       0.131543         3.5795
  82   0.0000       0.163483         4.4486

MULLIKEN ATOMIC CHARGES
-----------------------
   0 O :   -0.458942
   1 C :    0.324611
   2 C :    0.252533
   3 N :   -0.500830
   4 C :    0.083906
   5 C :    0.041569
   6 N :   -0.366937
   7 C :    0.255309
   8 C :   -0.244685
   9 C :   -0.008422
  10 C :   -0.019194
  11 C :   -0.150395
  12 C :    0.071689
  13 C :    0.071103
  14 C :   -0.154664
  15 C :   -0.028257
  16 C :   -0.027799
  17 C :   -0.046655
  18 C :   -0.027793
  19 C :   -0.028240
  20 C :   -0.018162
  21 C :   -0.001187
  22 H :    0.205144
  23 H :    0.031053
  24 H :    0.057645
  25 H :    0.056397
  26 H :    0.064143
  27 H :    0.041769
  28 H :    0.051846
  29 H :    0.035959
  30 H :    0.033015
  31 H :    0.038034
  32 H :    0.037910
  33 H :    0.035760
  34 H :    0.035585
  35 H :    0.028002
  36 H :    0.040156
  37 H :    0.040620
  38 H :    0.040201
  39 H :    0.028057
  40 H :    0.033902
  41 H :    0.046245
Sum of atomic charges:   -0.0000000

LOEWDIN ATOMIC CHARGES
----------------------
   0 O :   -0.197595
   1 C :    0.113666
   2 C :    0.086991
   3 N :   -0.022815
   4 C :   -0.019170
   5 C :   -0.034503
   6 N :   -0.183323
   7 C :    0.055985
   8 C :   -0.069944
   9 C :   -0.019752
  10 C :   -0.026302
  11 C :   -0.021098
  12 C :   -0.000484
  13 C :   -0.000489
  14 C :   -0.025556
  15 C :   -0.032377
  16 C :   -0.018288
  17 C :   -0.034947
  18 C :   -0.018261
  19 C :   -0.032344
  20 C :   -0.024931
  21 C :   -0.013619
  22 H :    0.088982
  23 H :    0.012239
  24 H :    0.030245
  25 H :    0.030601
  26 H :    0.027432
  27 H :    0.015726
  28 H :    0.015796
  29 H :    0.026417
  30 H :    0.025882
  31 H :    0.022149
  32 H :    0.022090
  33 H :    0.020881
  34 H :    0.020810
  35 H :    0.022747
  36 H :    0.026682
  37 H :    0.025893
  38 H :    0.026702
  39 H :    0.022776
  40 H :    0.026190
  41 H :    0.028919

  Mayer bond orders larger than 0.100000
B(  0-O ,  1-C ) :   0.9268 B(  0-O , 22-H ) :   0.9642 B(  1-C ,  2-C ) :   0.9978
B(  1-C ,  8-C ) :   0.9981 B(  1-C , 23-H ) :   0.9766 B(  2-C ,  3-N ) :   0.8832
B(  2-C , 24-H ) :   0.9838 B(  2-C , 25-H ) :   0.9659 B(  3-N ,  4-C ) :   1.1003
B(  3-N ,  7-C ) :   1.1678 B(  4-C ,  5-C ) :   1.6151 B(  4-C , 26-H ) :   0.9950
B(  5-C ,  6-N ) :   1.3050 B(  5-C , 27-H ) :   1.0066 B(  6-N ,  7-C ) :   1.6535
B(  7-C , 28-H ) :   0.9940 B(  8-C ,  9-C ) :   1.4206 B(  8-C , 21-C ) :   1.3833
B(  9-C , 10-C ) :   1.4288 B(  9-C , 29-H ) :   1.0025 B( 10-C , 11-C ) :   1.4186
B( 10-C , 30-H ) :   1.0023 B( 11-C , 12-C ) :   1.0042 B( 11-C , 20-C ) :   1.4025
B( 12-C , 13-C ) :   1.0089 B( 12-C , 31-H ) :   0.9732 B( 12-C , 32-H ) :   0.9731
B( 13-C , 14-C ) :   1.0075 B( 13-C , 33-H ) :   0.9737 B( 13-C , 34-H ) :   0.9737
B( 14-C , 15-C ) :   1.4145 B( 14-C , 19-C ) :   1.4146 B( 15-C , 16-C ) :   1.4253
B( 15-C , 35-H ) :   1.0025 B( 16-C , 17-C ) :   1.4145 B( 16-C , 36-H ) :   0.9995
B( 17-C , 18-C ) :   1.4146 B( 17-C , 37-H ) :   1.0001 B( 18-C , 19-C ) :   1.4253
B( 18-C , 38-H ) :   0.9995 B( 19-C , 39-H ) :   1.0025 B( 20-C , 21-C ) :   1.4438
B( 20-C , 40-H ) :   1.0041 B( 21-C , 41-H ) :   1.0033

FINAL SINGLE POINT ENERGY      -914.220146151128

DIPOLE MOMENT
-------------
                                X             Y             Z
Electronic contribution:    -10.30858       1.08626       0.43468
Nuclear contribution   :     12.54059      -1.62495      -0.52401
                        -----------------------------------------
Total Dipole Moment    :      2.23201      -0.53868      -0.08933
                        -----------------------------------------
Magnitude (a.u.)       :      2.29783
Magnitude (Debye)      :      5.84062

Rotational constants in cm-1:     0.046318     0.002429     0.002375
Rotational constants in MHz :  1388.593494    72.815499    71.212341

                             ****ORCA TERMINATED NORMALLY****
TOTAL RUN TIME: 0 days 0 hours 0 minutes 21 seconds 260 msec
