                         Program Version 5.0.3 -  RELEASE  -
|  1> !RHF def2-SVP TightSCF PAL16
|  2> *xyz 0 1
|  3> C -3.9252681030871335 -1.87642343740568 -3.256933630197439
|  4> C -4.175176021899635 -1.5668465960862663 -1.783592362518279
|  5> O -4.961580673963614 -0.388121916164468 -1.7326154964033424
|  6> C -4.992592999755613 0.18721600773701172 -0.49127371942467596
|  7> C -6.059495622344969 1.063111631203151 -0.2704517853070226
|  8> C -6.171980931977002 1.7390044751253384 0.9410269836918284
|  9> C -5.207733940335969 1.5487193158573331 1.925810627687903
| 10> C -4.130584352536896 0.6832312939371469 1.6999522171841226
| 11> C -4.007887650500411 -0.013924001413914264 0.4880749013667367
| 12> N -2.907354878773426 -0.8748152492962324 0.20891440167278236
| 13> C -1.7221736582934513 -0.9069370762460884 1.0618094860611471
| 14> C -0.7943816182488695 0.3012168496104115 0.8426816948319337
| 15> O -1.0339783764857875 1.1646671851140489 -0.003212091825602153
| 16> N 0.33390506662705094 0.3948810073209096 1.6587622216268758
| 17> C 0.6357304280251305 -0.5258044067321382 2.7566825818413117
| 18> C 2.1261667735481318 -0.6282555576504504 3.0480519481927253
| 19> C 2.7653220438540997 0.7280819913634979 3.339370891750271
| 20> C 1.9781182775928787 1.9080335056538082 2.7656336538247404
| 21> C 1.2015653328448122 1.5771116279198323 1.4841404566069558
| 22> C 2.114438360283111 1.3783267690874041 0.3104162628845303
| 23> N 3.1138748883673997 0.538550883568679 0.1417650673112805
| 24> C 3.5297243738502937 0.8173399972234406 -1.1425826258177125
| 25> C 4.614019269648126 0.08979342130301293 -1.7778254418622257
| 26> C 5.367994662271464 -0.8535284629211344 -1.0706849278678028
| 27> C 6.400215949232555 -1.5401985024936813 -1.7087161429155098
| 28> C 6.647965551165465 -1.2608965370303225 -3.0426267623314733
| 29> N 5.94297249541172 -0.3606539677945929 -3.7631821638951104
| 30> C 4.942578869127379 0.29141703192190316 -3.1155398577838636
| 31> N 2.850428205292817 1.8178560693362147 -1.7269513758185009
| 32> O 1.9041113328668553 2.183686382844356 -0.7721443486557005
| 33> C -2.8536218640901483 -1.5593493720041232 -1.0022605681878474
| 34> O -1.8686075436091718 -2.2048774696328866 -1.3646989942203518
| 35> H -3.315265730859338 -1.0918695591291645 -3.7188205766781826
| 36> H -4.869660381634815 -1.9112725120744518 -3.8103129793200154
| 37> H -3.4099115802916646 -2.8329827968819687 -3.3898538368240536
| 38> H -4.775858302539776 -2.387303098454651 -1.366810252661314
| 39> H -6.799735387278213 1.2194138808001034 -1.0510339485711295
| 40> H -7.002057042105769 2.420260060804609 1.110916138892964
| 41> H -5.285051335929366 2.0844922668485757 2.8693656150247744
| 42> H -3.4007192894835905 0.5883540127361798 2.496095777593355
| 43> H -2.0256225639635135 -0.9754600948504888 2.1106030710119534
| 44> H -1.1438894384825338 -1.8103731756846864 0.8353932137649341
| 45> H 0.24877548478179407 -1.5237249380605755 2.532738714856963
| 46> H 0.0985347794508411 -0.1591547381566385 3.639950232501806
| 47> H 2.626751572169193 -1.0847269006469322 2.1851881887071514
| 48> H 2.2989310479143477 -1.306668470250983 3.8922637808399
| 49> H 2.860690760115732 0.8650442850449277 4.424389962866838
| 50> H 3.7897095430047942 0.7324207235338632 2.945984165467879
| 51> H 1.254481104171469 2.228807552820204 3.527781985957844
| 52> H 2.6536700868725123 2.7583092060814427 2.6083810326993615
| 53> H 0.5560320578843019 2.4396927202950787 1.2692017912071938
| 54> H 5.156006445174058 -1.0560144331018004 -0.02352442963215767
| 55> H 6.993680135645407 -2.27539126393604 -1.1780469136605562
| 56> H 7.440341359678709 -1.7688674489156926 -3.5844022981787713
| 57> H 4.393453031593587 0.9954018279241087 -3.73738279773557
| 58> *
| 59>
| 60>                          ****END OF INPUT****

CARTESIAN COORDINATES (ANGSTROEM)
---------------------------------
  C     -3.925268   -1.876423   -3.256934
  C     -4.175176   -1.566847   -1.783592
  O     -4.961581   -0.388122   -1.732615
  C     -4.992593    0.187216   -0.491274
  C     -6.059496    1.063112   -0.270452
  C     -6.171981    1.739004    0.941027
  C     -5.207734    1.548719    1.925811
  C     -4.130584    0.683231    1.699952
  C     -4.007888   -0.013924    0.488075
  N     -2.907355   -0.874815    0.208914
  C     -1.722174   -0.906937    1.061809
  C     -0.794382    0.301217    0.842682
  O     -1.033978    1.164667   -0.003212
  N      0.333905    0.394881    1.658762
  C      0.635730   -0.525804    2.756683
  C      2.126167   -0.628256    3.048052
  C      2.765322    0.728082    3.339371
  C      1.978118    1.908034    2.765634
  C      1.201565    1.577112    1.484140
  C      2.114438    1.378327    0.310416
  N      3.113875    0.538551    0.141765
  C      3.529724    0.817340   -1.142583
  C      4.614019    0.089793   -1.777825
  C      5.367995   -0.853528   -1.070685
  C      6.400216   -1.540199   -1.708716
  C      6.647966   -1.260897   -3.042627
  N      5.942972   -0.360654   -3.763182
  C      4.942579    0.291417   -3.115540
  N      2.850428    1.817856   -1.726951
  O      1.904111    2.183686   -0.772144
  C     -2.853622   -1.559349   -1.002261
  O     -1.868608   -2.204877   -1.364699
  H     -3.315266   -1.091870   -3.718821
  H     -4.869660   -1.911273   -3.810313
  H     -3.409912   -2.832983   -3.389854
  H     -4.775858   -2.387303   -1.366810
  H     -6.799735    1.219414   -1.051034
  H     -7.002057    2.420260    1.110916
  H     -5.285051    2.084492    2.869366
  H     -3.400719    0.588354    2.496096
  H     -2.025623   -0.975460    2.110603
  H     -1.143889   -1.810373    0.835393
  H      0.248775   -1.523725    2.532739
  H      0.098535   -0.159155    3.639950
  H      2.626752   -1.084727    2.185188
  H      2.298931   -1.306668    3.892264
  H      2.860691    0.865044    4.424390
  H      3.789710    0.732421    2.945984
  H      1.254481    2.228808    3.527782
  H      2.653670    2.758309    2.608381
  H      0.556032    2.439693    1.269202
  H      5.156006   -1.056014   -0.023524
  H      6.993680   -2.275391   -1.178047
  H      7.440341   -1.768867   -3.584402
  H      4.393453    0.995402   -3.737383

 Total Charge           Charge          ....    0
 Multiplicity           Mult            ....    1
 Number of Electrons    NEL             ....  228
 Basis Dimension        Dim             ....  563

ORBITAL ENERGIES
----------------

  NO   OCC          E(Eh)            E(eV)
   0   2.0000     -20.655506      -562.0649
   1   2.0000     -20.591810      -560.3316
   2   2.0000     -20.539559      -558.9098
   3   2.0000     -20.531065      -558.6787
   4   2.0000     -15.624019      -425.1512
   5   2.0000     -15.622228      -425.1024
   6   2.0000     -15.607702      -424.7072
   7   2.0000     -15.584504      -424.0759
   8   2.0000     -15.570858      -423.7046
   9   2.0000     -11.376771      -309.5777
  10   2.0000     -11.374403      -309.5132
  11   2.0000     -11.372523      -309.4621
  12   2.0000     -11.329321      -308.2865
  13   2.0000     -11.312638      -307.8325
  14   2.0000     -11.310713      -307.7801
  15   2.0000     -11.310553      -307.7758
  16   2.0000     -11.307648      -307.6967
  17   2.0000     -11.303705      -307.5895
  18   2.0000     -11.294064      -307.3271
  19   2.0000     -11.289500      -307.2029
  20   2.0000     -11.287732      -307.1548
  21   2.0000     -11.274700      -306.8002
  22   2.0000     -11.262830      -306.4772
  23   2.0000     -11.259519      -306.3871
  24   2.0000     -11.256086      -306.2937
  25   2.0000     -11.251209      -306.1610
  26   2.0000     -11.246564      -306.0346
  27   2.0000     -11.244952      -305.9907
  28   2.0000     -11.244915      -305.9897
  29   2.0000     -11.243539      -305.9522
  30   2.0000     -11.242565      -305.9258
  31   2.0000     -11.226076      -305.4771
  32   2.0000      -1.502060       -40.8731
  33   2.0000      -1.419502       -38.6266
  34   2.0000      -1.381336       -37.5881
  35   2.0000      -1.372378       -37.3443
  36   2.0000      -1.265478       -34.4354
  37   2.0000      -1.260731       -34.3062
  38   2.0000      -1.252717       -34.0882
  39   2.0000      -1.240601       -33.7585
  40   2.0000      -1.155340       -31.4384
  41   2.0000      -1.146288       -31.1921
  42   2.0000      -1.094183       -29.7742
  43   2.0000      -1.087481       -29.5919
  44   2.0000      -1.057519       -28.7766
  45   2.0000      -1.052819       -28.6487
  46   2.0000      -1.036190       -28.1962
  47   2.0000      -1.029478       -28.0135
  48   2.0000      -1.012221       -27.5439
  49   2.0000      -0.975950       -26.5570
  50   2.0000      -0.939039       -25.5526
  51   2.0000      -0.903963       -24.5981
  52   2.0000      -0.897429       -24.4203
  53   2.0000      -0.882434       -24.0123
  54   2.0000      -0.865376       -23.5481
  55   2.0000      -0.859149       -23.3786
  56   2.0000      -0.841775       -22.9059
  57   2.0000      -0.823936       -22.4204
  58   2.0000      -0.815068       -22.1791
  59   2.0000      -0.797397       -21.6983
  60   2.0000      -0.770114       -20.9559
  61   2.0000      -0.759996       -20.6805
  62   2.0000      -0.740373       -20.1466
  63   2.0000      -0.733612       -19.9626
  64   2.0000      -0.720127       -19.5957
  65   2.0000      -0.708412       -19.2769
  66   2.0000      -0.699901       -19.0453
  67   2.0000      -0.696303       -18.9474
  68   2.0000      -0.686598       -18.6833
  69   2.0000      -0.679224       -18.4826
  70   2.0000      -0.667620       -18.1669
  71   2.0000      -0.658324       -17.9139
  72   2.0000      -0.652834       -17.7645
  73   2.0000      -0.649728       -17.6800
  74   2.0000      -0.642588       -17.4857
  75   2.0000      -0.638756       -17.3814
  76   2.0000      -0.628111       -17.0918
  77   2.0000      -0.621312       -16.9068
  78   2.0000      -0.616583       -16.7781
  79   2.0000      -0.604790       -16.4572
  80   2.0000      -0.603827       -16.4310
  81   2.0000      -0.598513       -16.2864
  82   2.0000      -0.597017       -16.2457
  83   2.0000      -0.587975       -15.9996
  84   2.0000      -0.580589       -15.7986
  85   2.0000      -0.570692       -15.5293
  86   2.0000      -0.569933       -15.5087
  87   2.0000      -0.561193       -15.2708
  88   2.0000      -0.554513       -15.0891
  89   2.0000      -0.553259       -15.0550
  90   2.0000      -0.548923       -14.9369
  91   2.0000      -0.535745       -14.5784
  92   2.0000      -0.534394       -14.5416
  93   2.0000      -0.530247       -14.4287
  94   2.0000      -0.524739       -14.2789
  95   2.0000      -0.519858       -14.1461
  96   2.0000      -0.510986       -13.9046
  97   2.0000      -0.510150       -13.8819
  98   2.0000      -0.494417       -13.4538
  99   2.0000      -0.490355       -13.3432
 100   2.0000      -0.483765       -13.1639
 101   2.0000      -0.479623       -13.0512
 102   2.0000      -0.477078       -12.9819
 103   2.0000      -0.469262       -12.7693
 104   2.0000      -0.452178       -12.3044
 105   2.0000      -0.436878       -11.8880
 106   2.0000      -0.432302       -11.7635
 107   2.0000      -0.425343       -11.5742
 108   2.0000      -0.416366       -11.3299
 109   2.0000      -0.390323       -10.6212
 110   2.0000      -0.380991       -10.3673
 111   2.0000      -0.341464        -9.2917
 112   2.0000      -0.338212        -9.2032
 113   2.0000      -0.310238        -8.4420
 114   0.0000       0.076297         2.0761
 115   0.0000       0.104954         2.8560
 116   0.0000       0.117811         3.2058
 117   0.0000       0.126096         3.4312
 118   0.0000       0.134607         3.6628

MULLIKEN ATOMIC CHARGES
-----------------------
   0 C :    0.000642
   1 C :    0.151464
   2 O :   -0.532613
   3 C :    0.228776
   4 C :   -0.051910
   5 C :   -0.023445
   6 C :   -0.029241
   7 C :   -0.088418
   8 C :    0.264816
   9 N :   -0.642676
  10 C :    0.182832
  11 C :    0.456584
  12 O :   -0.432378
  13 N :   -0.694113
  14 C :    0.198682
  15 C :   -0.057013
  16 C :   -0.052556
  17 C :   -0.007390
  18 C :    0.147029
  19 C :    0.441091
  20 N :   -0.423431
  21 C :    0.292449
  22 C :   -0.258217
  23 C :    0.093888
  24 C :   -0.117680
  25 C :    0.172674
  26 N :   -0.370554
  27 C :    0.222110
  28 N :   -0.078745
  29 O :   -0.366488
  30 C :    0.492458
  31 O :   -0.437705
  32 H :    0.052169
  33 H :    0.044874
  34 H :    0.057825
  35 H :    0.061973
  36 H :    0.051648
  37 H :    0.044987
  38 H :    0.041456
  39 H :    0.025728
  40 H :    0.076183
  41 H :    0.113101
  42 H :    0.053759
  43 H :    0.027469
  44 H :    0.067168
  45 H :    0.043427
  46 H :    0.036543
  47 H :    0.053690
  48 H :    0.048925
  49 H :    0.061918
  50 H :    0.095128
  51 H :    0.069211
  52 H :    0.051469
  53 H :    0.059314
  54 H :    0.081112
Sum of atomic charges:    0.0000000

LOEWDIN ATOMIC CHARGES
----------------------
   0 C :   -0.023085
   1 C :    0.086321
   2 O :   -0.175516
   3 C :    0.068189
   4 C :   -0.026637
   5 C :   -0.027103
   6 C :   -0.030030
   7 C :   -0.043114
   8 C :    0.029800
   9 N :   -0.101105
  10 C :    0.059741
  11 C :    0.190777
  12 O :   -0.296398
  13 N :   -0.147449
  14 C :    0.076181
  15 C :   -0.025880
  16 C :   -0.022016
  17 C :   -0.008947
  18 C :    0.061631
  19 C :    0.179737
  20 N :   -0.211233
  21 C :    0.064114
  22 C :   -0.104918
  23 C :    0.056804
  24 C :   -0.071276
  25 C :    0.075845
  26 N :   -0.145773
  27 C :    0.103175
  28 N :   -0.091111
  29 O :   -0.067923
  30 C :    0.201773
  31 O :   -0.292960
  32 H :    0.029890
  33 H :    0.024075
  34 H :    0.031286
  35 H :    0.025633
  36 H :    0.038120
  37 H :    0.029327
  38 H :    0.028339
  39 H :    0.024513
  40 H :    0.028630
  41 H :    0.049543
  42 H :    0.020866
  43 H :    0.003813
  44 H :    0.025490
  45 H :    0.023745
  46 H :    0.017514
  47 H :    0.022543
  48 H :    0.023498
  49 H :    0.032148
  50 H :    0.047459
  51 H :    0.038394
  52 H :    0.032542
  53 H :    0.025191
  54 H :    0.035827

  Mayer bond orders larger than 0.100000
B(  0-C ,  1-C ) :   1.0602 B(  0-C , 32-H ) :   0.9802 B(  0-C , 33-H ) :   0.9840
B(  0-C , 34-H ) :   0.9726 B(  1-C ,  2-O ) :   0.8606 B(  1-C , 30-C ) :   0.9314
B(  1-C , 35-H ) :   0.9472 B(  2-O ,  3-C ) :   0.9843 B(  3-C ,  4-C ) :   1.4372
B(  3-C ,  8-C ) :   1.3481 B(  4-C ,  5-C ) :   1.4118 B(  4-C , 36-H ) :   1.0049
B(  5-C ,  6-C ) :   1.4107 B(  5-C , 37-H ) :   1.0009 B(  6-C ,  7-C ) :   1.4249
B(  6-C , 38-H ) :   0.9990 B(  7-C ,  8-C ) :   1.3827 B(  7-C , 39-H ) :   1.0045
B(  8-C ,  9-N ) :   0.8893 B(  9-N , 10-C ) :   0.9167 B(  9-N , 30-C ) :   1.0712
B( 10-C , 11-C ) :   0.9643 B( 10-C , 40-H ) :   0.9704 B( 10-C , 41-H ) :   0.9461
B( 11-C , 12-O ) :   1.9593 B( 11-C , 13-N ) :   1.0669 B( 13-N , 14-C ) :   0.8527
B( 13-N , 18-C ) :   0.8891 B( 14-C , 15-C ) :   1.0686 B( 14-C , 42-H ) :   0.9694
B( 14-C , 43-H ) :   0.9719 B( 15-C , 16-C ) :   1.0228 B( 15-C , 44-H ) :   0.9580
B( 15-C , 45-H ) :   0.9742 B( 16-C , 17-C ) :   1.0175 B( 16-C , 46-H ) :   0.9732
B( 16-C , 47-H ) :   0.9709 B( 17-C , 18-C ) :   1.0855 B( 17-C , 48-H ) :   0.9673
B( 17-C , 49-H ) :   0.9742 B( 18-C , 19-C ) :   0.9474 B( 18-C , 50-H ) :   0.9432
B( 19-C , 20-N ) :   1.6650 B( 19-C , 29-O ) :   1.1092 B( 20-N , 21-C ) :   1.2636
B( 21-C , 22-C ) :   1.0514 B( 21-C , 28-N ) :   1.7330 B( 22-C , 23-C ) :   1.4094
B( 22-C , 27-C ) :   1.3787 B( 23-C , 24-C ) :   1.4385 B( 23-C , 51-H ) :   0.9913
B( 24-C , 25-C ) :   1.3987 B( 24-C , 52-H ) :   0.9916 B( 25-C , 26-N ) :   1.4535
B( 25-C , 53-H ) :   0.9990 B( 26-N , 27-C ) :   1.4782 B( 27-C , 54-H ) :   1.0013
B( 28-N , 29-O ) :   0.9003 B( 30-C , 31-O ) :   1.9420

FINAL SINGLE POINT ENERGY     -1454.919243647422

DIPOLE MOMENT
-------------
                                X             Y             Z
Electronic contribution:      2.10934       5.06958     -13.80245
Nuclear contribution   :     -2.24530      -6.01387      17.20691
                        -----------------------------------------
Total Dipole Moment    :     -0.13595      -0.94428       3.40446
                        -----------------------------------------
Magnitude (a.u.)       :      3.53561
Magnitude (Debye)      :      8.98680

Rotational constants in cm-1:     0.007621     0.002341     0.002015
Rotational constants in MHz :   228.484964    70.175344    60.399211

                             ****ORCA TERMINATED NORMALLY****
TOTAL RUN TIME: 0 days 0 hours 0 minutes 52 seconds 74 msec
