                         Program Version 5.0.3 -  RELEASE  -
|  1> !RHF def2-SVP TightSCF PAL16
|  2> *xyz 0 1
|  3> C -3.721774038314067 1.7396834805732078 -0.6755686983511551
|  4> C -3.259010245091028 0.31625580345451443 -0.36405998585561944
|  5> C -4.117707370511399 -0.2608086183102603 0.7486456206719393
|  6> O -3.8898782131621137 -0.27980690589846874 1.9467895317341075
|  7> O -5.284899187852549 -0.7613128357682595 0.2845618966580522
|  8> C -1.765714876693219 0.2583917523443213 -0.06969336547745553
|  9> C -1.2001196998805537 0.9747848743623372 1.0116349511811729
| 10> C 0.17350585519669706 0.9346714524891401 1.2806868004122598
| 11> C 0.9844842492846521 0.17346172786026487 0.4595969149249048
| 12> C 0.43074179576173693 -0.5446200864079911 -0.6199432827028396
| 13> C -0.9280265114737469 -0.5129620925409105 -0.8941383866348462
| 14> C 1.5169666058188376 -1.2972076626467337 -1.3623336046406034
| 15> C 2.7551409589943985 -0.9201515858970931 -0.5749863087565141
| 16> C 4.063716500622073 -1.3168126096568524 -0.794869563364921
| 17> C 5.047590488994639 -0.8363385267779765 0.07156213803790167
| 18> C 4.71448366809749 0.02306980882029508 1.132709988149457
| 19> C 3.390104052855963 0.41871354832591745 1.3475212859909842
| 20> C 2.413515812160833 -0.056844970600895675 0.488883477091718
| 21> H -3.6352437040722507 2.397091721377235 0.19684307930752673
| 22> H -3.1318842874836808 2.17743878753278 -1.4882918796642344
| 23> H -4.774256152715501 1.747371915759496 -0.9803335605328527
| 24> H -3.446133426548117 -0.30129661309588085 -1.2533683299411842
| 25> H -5.734884520524936 -1.0839329135893432 1.093999336774595
| 26> H -1.8379249077080488 1.5649366443432942 1.6682814480846075
| 27> H 0.5809965027260096 1.4879693020110996 2.119845903127037
| 28> H -1.3251614951804445 -1.0755827419410002 -1.7338888606093414
| 29> H 1.593535276383819 -0.9460641669473342 -2.3954813070460736
| 30> H 1.3416409509504734 -2.3758845298153073 -1.3145737380189793
| 31> H 4.321156669982128 -1.980497974625269 -1.613327979030543
| 32> H 6.084600005641993 -1.1298042405160955 -0.07438393804589698
| 33> H 5.497359423502499 0.38445124251384627 1.7954502475161176
| 34> H 3.1430798202377246 1.081637013267915 2.1695314783498514
| 35> *
| 36>
| 37>                          ****END OF INPUT****

CARTESIAN COORDINATES (ANGSTROEM)
---------------------------------
  C     -3.721774    1.739683   -0.675569
  C     -3.259010    0.316256   -0.364060
  C     -4.117707   -0.260809    0.748646
  O     -3.889878   -0.279807    1.946790
  O     -5.284899   -0.761313    0.284562
  C     -1.765715    0.258392   -0.069693
  C     -1.200120    0.974785    1.011635
  C      0.173506    0.934671    1.280687
  C      0.984484    0.173462    0.459597
  C      0.430742   -0.544620   -0.619943
  C     -0.928027   -0.512962   -0.894138
  C      1.516967   -1.297208   -1.362334
  C      2.755141   -0.920152   -0.574986
  C      4.063717   -1.316813   -0.794870
  C      5.047590   -0.836339    0.071562
  C      4.714484    0.023070    1.132710
  C      3.390104    0.418714    1.347521
  C      2.413516   -0.056845    0.488883
  H     -3.635244    2.397092    0.196843
  H     -3.131884    2.177439   -1.488292
  H     -4.774256    1.747372   -0.980334
  H     -3.446133   -0.301297   -1.253368
  H     -5.734885   -1.083933    1.093999
  H     -1.837925    1.564937    1.668281
  H      0.580997    1.487969    2.119846
  H     -1.325161   -1.075583   -1.733889
  H      1.593535   -0.946064   -2.395481
  H      1.341641   -2.375885   -1.314574
  H      4.321157   -1.980498   -1.613328
  H      6.084600   -1.129804   -0.074384
  H      5.497359    0.384451    1.795450
  H      3.143080    1.081637    2.169531

 Total Charge           Charge          ....    0
 Multiplicity           Mult            ....    1
 Number of Electrons    NEL             ....  126
 Basis Dimension        Dim             ....  322

ORBITAL ENERGIES
----------------

  NO   OCC          E(Eh)            E(eV)
   0   2.0000     -20.608174      -560.7769
   1   2.0000     -20.544584      -559.0466
   2   2.0000     -11.391554      -309.9800
   3   2.0000     -11.264288      -306.5169
   4   2.0000     -11.250296      -306.1361
   5   2.0000     -11.242745      -305.9307
   6   2.0000     -11.242076      -305.9125
   7   2.0000     -11.241550      -305.8981
   8   2.0000     -11.239582      -305.8446
   9   2.0000     -11.239494      -305.8422
  10   2.0000     -11.239128      -305.8322
  11   2.0000     -11.239025      -305.8294
  12   2.0000     -11.238708      -305.8208
  13   2.0000     -11.237915      -305.7992
  14   2.0000     -11.237711      -305.7937
  15   2.0000     -11.237282      -305.7820
  16   2.0000     -11.236603      -305.7635
  17   2.0000     -11.235794      -305.7415
  18   2.0000      -1.449777       -39.4504
  19   2.0000      -1.334537       -36.3146
  20   2.0000      -1.185612       -32.2622
  21   2.0000      -1.137294       -30.9473
  22   2.0000      -1.094497       -29.7828
  23   2.0000      -1.054723       -28.7005
  24   2.0000      -1.028347       -27.9828
  25   2.0000      -1.002524       -27.2801
  26   2.0000      -0.959139       -26.0995
  27   2.0000      -0.930357       -25.3163
  28   2.0000      -0.903859       -24.5952
  29   2.0000      -0.859109       -23.3775
  30   2.0000      -0.817296       -22.2398
  31   2.0000      -0.795368       -21.6431
  32   2.0000      -0.787050       -21.4167
  33   2.0000      -0.759301       -20.6616
  34   2.0000      -0.705471       -19.1968
  35   2.0000      -0.701682       -19.0937
  36   2.0000      -0.692806       -18.8522
  37   2.0000      -0.664024       -18.0690
  38   2.0000      -0.650385       -17.6979
  39   2.0000      -0.638838       -17.3837
  40   2.0000      -0.632729       -17.2174
  41   2.0000      -0.616180       -16.7671
  42   2.0000      -0.614080       -16.7100
  43   2.0000      -0.603612       -16.4251
  44   2.0000      -0.597875       -16.2690
  45   2.0000      -0.594491       -16.1769
  46   2.0000      -0.569063       -15.4850
  47   2.0000      -0.564053       -15.3487
  48   2.0000      -0.555694       -15.1212
  49   2.0000      -0.546049       -14.8587
  50   2.0000      -0.519944       -14.1484
  51   2.0000      -0.507730       -13.8160
  52   2.0000      -0.504794       -13.7361
  53   2.0000      -0.498073       -13.5533
  54   2.0000      -0.485202       -13.2030
  55   2.0000      -0.481743       -13.1089
  56   2.0000      -0.479866       -13.0578
  57   2.0000      -0.472865       -12.8673
  58   2.0000      -0.448377       -12.2010
  59   2.0000      -0.378702       -10.3050
  60   2.0000      -0.339759        -9.2453
  61   2.0000      -0.328797        -8.9470
  62   2.0000      -0.284735        -7.7480
  63   0.0000       0.090916         2.4740
  64   0.0000       0.115876         3.1532
  65   0.0000       0.145238         3.9521
  66   0.0000       0.165324         4.4987
  67   0.0000       0.182776         4.9736

MULLIKEN ATOMIC CHARGES
-----------------------
   0 C :    0.008697
   1 C :   -0.145121
   2 C :    0.499156
   3 O :   -0.407971
   4 O :   -0.358679
   5 C :   -0.116652
   6 C :    0.021466
   7 C :   -0.036959
   8 C :   -0.000090
   9 C :   -0.207702
  10 C :   -0.010930
  11 C :    0.301700
  12 C :   -0.205190
  13 C :   -0.029330
  14 C :   -0.033571
  15 C :   -0.034315
  16 C :   -0.034166
  17 C :   -0.000057
  18 H :    0.046463
  19 H :    0.056346
  20 H :    0.050790
  21 H :    0.068099
  22 H :    0.224499
  23 H :    0.046184
  24 H :    0.027464
  25 H :    0.015704
  26 H :    0.062068
  27 H :    0.063603
  28 H :    0.024099
  29 H :    0.038844
  30 H :    0.038182
  31 H :    0.027369
Sum of atomic charges:    0.0000000

LOEWDIN ATOMIC CHARGES
----------------------
   0 C :   -0.011011
   1 C :   -0.042856
   2 C :    0.221631
   3 O :   -0.278632
   4 O :   -0.113596
   5 C :   -0.025221
   6 C :   -0.007013
   7 C :   -0.015316
   8 C :   -0.026705
   9 C :   -0.017616
  10 C :   -0.027759
  11 C :    0.011175
  12 C :   -0.018329
  13 C :   -0.027506
  14 C :   -0.025501
  15 C :   -0.026036
  16 C :   -0.019459
  17 C :   -0.026283
  18 H :    0.022424
  19 H :    0.027894
  20 H :    0.022529
  21 H :    0.035778
  22 H :    0.114009
  23 H :    0.028216
  24 H :    0.026401
  25 H :    0.022928
  26 H :    0.036671
  27 H :    0.037387
  28 H :    0.025461
  29 H :    0.025346
  30 H :    0.025778
  31 H :    0.025211

  Mayer bond orders larger than 0.100000
B(  0-C ,  1-C ) :   1.0243 B(  0-C , 18-H ) :   0.9803 B(  0-C , 19-H ) :   0.9855
B(  0-C , 20-H ) :   0.9826 B(  1-C ,  2-C ) :   0.9221 B(  1-C ,  5-C ) :   0.9848
B(  1-C , 21-H ) :   0.9663 B(  2-C ,  3-O ) :   2.0010 B(  2-C ,  4-O ) :   1.1272
B(  4-O , 22-H ) :   0.9427 B(  5-C ,  6-C ) :   1.3980 B(  5-C , 10-C ) :   1.4183
B(  6-C ,  7-C ) :   1.4493 B(  6-C , 23-H ) :   0.9933 B(  7-C ,  8-C ) :   1.4032
B(  7-C , 24-H ) :   1.0018 B(  8-C ,  9-C ) :   1.4048 B(  8-C , 17-C ) :   1.0277
B(  9-C , 10-C ) :   1.4688 B(  9-C , 11-C ) :   0.9907 B( 10-C , 25-H ) :   1.0027
B( 11-C , 12-C ) :   0.9896 B( 11-C , 26-H ) :   0.9395 B( 11-C , 27-H ) :   0.9387
B( 12-C , 13-C ) :   1.4659 B( 12-C , 17-C ) :   1.3917 B( 13-C , 14-C ) :   1.4022
B( 13-C , 28-H ) :   1.0069 B( 14-C , 15-C ) :   1.4201 B( 14-C , 29-H ) :   0.9976
B( 15-C , 16-C ) :   1.4197 B( 15-C , 30-H ) :   0.9966 B( 16-C , 17-C ) :   1.4167
B( 16-C , 31-H ) :   0.9994

FINAL SINGLE POINT ENERGY      -763.245170245911

DIPOLE MOMENT
-------------
                                X             Y             Z
Electronic contribution:      0.03586      -3.20315       3.53235
Nuclear contribution   :     -0.15993       3.22540      -4.32297
                        -----------------------------------------
Total Dipole Moment    :     -0.12406       0.02224      -0.79063
                        -----------------------------------------
Magnitude (a.u.)       :      0.80061
Magnitude (Debye)      :      2.03499

Rotational constants in cm-1:     0.044708     0.006262     0.005935
Rotational constants in MHz :  1340.311819   187.721138   177.934614

                             ****ORCA TERMINATED NORMALLY****
TOTAL RUN TIME: 0 days 0 hours 0 minutes 14 seconds 949 msec
