                         Program Version 5.0.3 -  RELEASE  -
|  1> !RHF def2-SVP TightSCF PAL16
|  2> *xyz 0 1
|  3> C 4.23077554256115 0.08195190400800632 0.560752552873301
|  4> N 3.630594944129521 -0.8869413250994969 -0.35853039626720096
|  5> C 4.433772825876443 -0.9693214690004393 -1.5816051756146783
|  6> C 2.2356048040079064 -0.5445570140506498 -0.6943814783800281
|  7> C 1.2775307659647563 -0.6611520820962913 0.5050210446995947
|  8> C -0.21371189800595403 -0.4999775848726928 0.09239354465691896
|  9> C -0.5910220844089175 0.8623801273132032 -0.49434067923632974
| 10> C 0.10153886578742993 2.04408545508172 -0.18324672937160716
| 11> C -0.27743734473796994 3.2662904705818887 -0.7439624314585016
| 12> C -1.366524297454495 3.3247493041736766 -1.6060424479793904
| 13> Cl -1.833325799126247 4.830872842618555 -2.294631957373424
| 14> C -2.093683418095622 2.1743841154010948 -1.8995359877195273
| 15> C -1.7213137300736052 0.9431491150414241 -1.3384325841647127
| 16> C -2.56645311632078 -0.28391423644711816 -1.579793563297499
| 17> C -3.3175938592169705 -0.7249893857561578 -0.31845300646819696
| 18> C -2.5745318361842298 -1.0293944400128963 0.9686150441080237
| 19> C -3.371302937323088 -1.438853739603183 2.0553946521556448
| 20> C -2.8074973722867447 -1.695948030446155 3.2975348767629202
| 21> C -1.4473557509752328 -1.5309268114797931 3.430239498168192
| 22> N -0.6428465874398219 -1.143730860193417 2.4206753862970136
| 23> C -1.1927116815774617 -0.9015785460016714 1.1971908972559175
| 24> H 4.196964972303871 1.1032076983022998 0.16443121355024118
| 25> H 3.7318087306472547 0.06858907714664607 1.5344594821132995
| 26> H 5.278431078696099 -0.17331102604111964 0.7582453443440855
| 27> H 5.461116224520722 -1.271496197418266 -1.3489734232674726
| 28> H 4.467405032467715 -0.014610881106528608 -2.1190813433158042
| 29> H 4.03151302819376 -1.7325884992358556 -2.2571230033969356
| 30> H 2.1911894000412473 0.45760664290459657 -1.135858679012137
| 31> H 1.883785014628364 -1.2441657632331256 -1.4639878568753977
| 32> H 1.4173525203877688 -1.6584709010890761 0.945570735962907
| 33> H 1.5357908690734088 0.05908034961861503 1.289183995793172
| 34> H -0.33395358778273027 -1.2555232308652498 -0.6947406737030487
| 35> H 0.9430605575207979 2.037204153364206 0.5050562506008439
| 36> H 0.2779800124800929 4.1668307560351945 -0.4960955665944353
| 37> H -2.9613537128463707 2.2405399289728747 -2.5513980467357786
| 38> H -3.3051760762963838 -0.07400597402434325 -2.364493953617393
| 39> H -1.953334400652907 -1.0971833019123722 -1.9836569594911506
| 40> H -4.050095395032918 0.06005803970434383 -0.08128141348029803
| 41> H -3.893880326972263 -1.6213885977903517 -0.5848658282041268
| 42> H -4.447329941584061 -1.5482598483531755 1.934026702808298
| 43> H -3.4156402624520017 -2.0080364943512596 4.138164067969833
| 44> H -0.9481397724415682 -1.7106537397876238 4.377557894904933
| 45> *
| 46>
| 47>                          ****END OF INPUT****

CARTESIAN COORDINATES (ANGSTROEM)
---------------------------------
  C      4.230776    0.081952    0.560753
  N      3.630595   -0.886941   -0.358530
  C      4.433773   -0.969321   -1.581605
  C      2.235605   -0.544557   -0.694381
  C      1.277531   -0.661152    0.505021
  C     -0.213712   -0.499978    0.092394
  C     -0.591022    0.862380   -0.494341
  C      0.101539    2.044085   -0.183247
  C     -0.277437    3.266290   -0.743962
  C     -1.366524    3.324749   -1.606042
  Cl    -1.833326    4.830873   -2.294632
  C     -2.093683    2.174384   -1.899536
  C     -1.721314    0.943149   -1.338433
  C     -2.566453   -0.283914   -1.579794
  C     -3.317594   -0.724989   -0.318453
  C     -2.574532   -1.029394    0.968615
  C     -3.371303   -1.438854    2.055395
  C     -2.807497   -1.695948    3.297535
  C     -1.447356   -1.530927    3.430239
  N     -0.642847   -1.143731    2.420675
  C     -1.192712   -0.901579    1.197191
  H      4.196965    1.103208    0.164431
  H      3.731809    0.068589    1.534459
  H      5.278431   -0.173311    0.758245
  H      5.461116   -1.271496   -1.348973
  H      4.467405   -0.014611   -2.119081
  H      4.031513   -1.732588   -2.257123
  H      2.191189    0.457607   -1.135859
  H      1.883785   -1.244166   -1.463988
  H      1.417353   -1.658471    0.945571
  H      1.535791    0.059080    1.289184
  H     -0.333954   -1.255523   -0.694741
  H      0.943061    2.037204    0.505056
  H      0.277980    4.166831   -0.496096
  H     -2.961354    2.240540   -2.551398
  H     -3.305176   -0.074006   -2.364494
  H     -1.953334   -1.097183   -1.983657
  H     -4.050095    0.060058   -0.081281
  H     -3.893880   -1.621389   -0.584866
  H     -4.447330   -1.548260    1.934027
  H     -3.415640   -2.008036    4.138164
  H     -0.948140   -1.710654    4.377558

 Total Charge           Charge          ....    0
 Multiplicity           Mult            ....    1
 Number of Electrons    NEL             ....  160
 Basis Dimension        Dim             ....  403

ORBITAL ENERGIES
----------------

  NO   OCC          E(Eh)            E(eV)
   0   2.0000    -104.791367     -2851.5181
   1   2.0000     -15.561580      -423.4521
   2   2.0000     -15.539126      -422.8411
   3   2.0000     -11.296548      -307.3947
   4   2.0000     -11.286164      -307.1121
   5   2.0000     -11.274065      -306.7829
   6   2.0000     -11.259913      -306.3978
   7   2.0000     -11.254218      -306.2428
   8   2.0000     -11.252656      -306.2003
   9   2.0000     -11.252357      -306.1922
  10   2.0000     -11.249460      -306.1134
  11   2.0000     -11.249276      -306.1084
  12   2.0000     -11.249107      -306.1038
  13   2.0000     -11.248517      -306.0877
  14   2.0000     -11.247453      -306.0587
  15   2.0000     -11.247102      -306.0492
  16   2.0000     -11.245389      -306.0026
  17   2.0000     -11.244270      -305.9721
  18   2.0000     -11.243788      -305.9590
  19   2.0000     -11.241122      -305.8865
  20   2.0000     -11.220272      -305.3191
  21   2.0000     -10.555273      -287.2236
  22   2.0000      -8.030416      -218.5187
  23   2.0000      -8.026818      -218.4208
  24   2.0000      -8.026759      -218.4192
  25   2.0000      -1.240878       -33.7660
  26   2.0000      -1.203567       -32.7507
  27   2.0000      -1.184525       -32.2326
  28   2.0000      -1.134336       -30.8668
  29   2.0000      -1.096080       -29.8259
  30   2.0000      -1.072668       -29.1888
  31   2.0000      -1.053917       -28.6785
  32   2.0000      -1.019955       -27.7544
  33   2.0000      -0.988911       -26.9096
  34   2.0000      -0.981293       -26.7023
  35   2.0000      -0.934786       -25.4368
  36   2.0000      -0.919366       -25.0172
  37   2.0000      -0.887724       -24.1562
  38   2.0000      -0.864036       -23.5116
  39   2.0000      -0.831590       -22.6287
  40   2.0000      -0.823828       -22.4175
  41   2.0000      -0.788805       -21.4645
  42   2.0000      -0.783482       -21.3196
  43   2.0000      -0.764169       -20.7941
  44   2.0000      -0.695604       -18.9284
  45   2.0000      -0.688517       -18.7355
  46   2.0000      -0.682145       -18.5621
  47   2.0000      -0.663514       -18.0551
  48   2.0000      -0.645288       -17.5592
  49   2.0000      -0.640793       -17.4369
  50   2.0000      -0.637847       -17.3567
  51   2.0000      -0.621566       -16.9137
  52   2.0000      -0.611190       -16.6313
  53   2.0000      -0.608519       -16.5586
  54   2.0000      -0.602077       -16.3833
  55   2.0000      -0.591304       -16.0902
  56   2.0000      -0.570620       -15.5274
  57   2.0000      -0.564523       -15.3615
  58   2.0000      -0.560223       -15.2444
  59   2.0000      -0.551502       -15.0071
  60   2.0000      -0.547989       -14.9115
  61   2.0000      -0.541649       -14.7390
  62   2.0000      -0.534223       -14.5370
  63   2.0000      -0.530311       -14.4305
  64   2.0000      -0.514313       -13.9952
  65   2.0000      -0.509289       -13.8584
  66   2.0000      -0.505303       -13.7500
  67   2.0000      -0.497165       -13.5285
  68   2.0000      -0.489749       -13.3267
  69   2.0000      -0.474627       -12.9153
  70   2.0000      -0.472449       -12.8560
  71   2.0000      -0.466372       -12.6906
  72   2.0000      -0.451705       -12.2915
  73   2.0000      -0.447571       -12.1790
  74   2.0000      -0.412692       -11.2299
  75   2.0000      -0.374340       -10.1863
  76   2.0000      -0.354848        -9.6559
  77   2.0000      -0.341801        -9.3009
  78   2.0000      -0.338397        -9.2082
  79   2.0000      -0.318469        -8.6660
  80   0.0000       0.102565         2.7909
  81   0.0000       0.115996         3.1564
  82   0.0000       0.124402         3.3851
  83   0.0000       0.134480         3.6594
  84   0.0000       0.171545         4.6680

MULLIKEN ATOMIC CHARGES
-----------------------
   0 C :    0.146900
   1 N :   -0.629419
   2 C :    0.157263
   3 C :    0.195111
   4 C :    0.059795
   5 C :   -0.069708
   6 C :   -0.095266
   7 C :   -0.026611
   8 C :   -0.014110
   9 C :    0.046972
  10 Cl:   -0.141552
  11 C :   -0.005502
  12 C :   -0.161930
  13 C :    0.105394
  14 C :    0.063414
  15 C :   -0.196771
  16 C :    0.045278
  17 C :   -0.108539
  18 C :    0.166466
  19 N :   -0.384545
  20 C :    0.124354
  21 H :   -0.002490
  22 H :    0.040456
  23 H :    0.029677
  24 H :    0.029870
  25 H :   -0.000519
  26 H :    0.028406
  27 H :    0.008557
  28 H :    0.012106
  29 H :    0.050419
  30 H :    0.038370
  31 H :    0.058522
  32 H :    0.044552
  33 H :    0.042701
  34 H :    0.032047
  35 H :    0.031741
  36 H :    0.046311
  37 H :    0.050384
  38 H :    0.048230
  39 H :    0.039339
  40 H :    0.046024
  41 H :    0.048302
Sum of atomic charges:   -0.0000000

LOEWDIN ATOMIC CHARGES
----------------------
   0 C :    0.053427
   1 N :   -0.205167
   2 C :    0.055465
   3 C :    0.062870
   4 C :   -0.005920
   5 C :   -0.016878
   6 C :   -0.023424
   7 C :   -0.007031
   8 C :   -0.043593
   9 C :   -0.114463
  10 Cl:    0.090711
  11 C :   -0.043510
  12 C :   -0.020379
  13 C :   -0.005853
  14 C :   -0.004618
  15 C :   -0.063601
  16 C :    0.026199
  17 C :   -0.068049
  18 C :    0.054154
  19 N :   -0.144233
  20 C :    0.054870
  21 H :   -0.009729
  22 H :    0.013036
  23 H :    0.013398
  24 H :    0.011736
  25 H :   -0.008721
  26 H :    0.011211
  27 H :   -0.009187
  28 H :    0.008132
  29 H :    0.028449
  30 H :    0.011881
  31 H :    0.026419
  32 H :    0.030480
  33 H :    0.031409
  34 H :    0.028477
  35 H :    0.025225
  36 H :    0.022501
  37 H :    0.028191
  38 H :    0.025884
  39 H :    0.029092
  40 H :    0.030053
  41 H :    0.021087

  Mayer bond orders larger than 0.100000
B(  0-C ,  1-N ) :   0.9407 B(  0-C , 21-H ) :   0.9741 B(  0-C , 22-H ) :   0.9919
B(  0-C , 23-H ) :   0.9917 B(  1-N ,  2-C ) :   0.9501 B(  1-N ,  3-C ) :   0.9501
B(  2-C , 24-H ) :   0.9921 B(  2-C , 25-H ) :   0.9757 B(  2-C , 26-H ) :   0.9915
B(  3-C ,  4-C ) :   1.0304 B(  3-C , 27-H ) :   0.9665 B(  3-C , 28-H ) :   0.9712
B(  4-C ,  5-C ) :   1.0707 B(  4-C , 29-H ) :   0.9603 B(  4-C , 30-H ) :   0.9531
B(  5-C ,  6-C ) :   0.9542 B(  5-C , 20-C ) :   0.9662 B(  5-C , 31-H ) :   0.9613
B(  6-C ,  7-C ) :   1.4442 B(  6-C , 12-C ) :   1.4203 B(  7-C ,  8-C ) :   1.4246
B(  7-C , 32-H ) :   0.9976 B(  8-C ,  9-C ) :   1.4153 B(  8-C , 33-H ) :   1.0025
B(  9-C , 10-Cl) :   0.9433 B(  9-C , 11-C ) :   1.4017 B( 11-C , 12-C ) :   1.4411
B( 11-C , 34-H ) :   1.0038 B( 12-C , 13-C ) :   0.9995 B( 13-C , 14-C ) :   1.0680
B( 13-C , 35-H ) :   0.9623 B( 13-C , 36-H ) :   0.9610 B( 14-C , 15-C ) :   0.9507
B( 14-C , 37-H ) :   0.9647 B( 14-C , 38-H ) :   0.9662 B( 15-C , 16-C ) :   1.4638
B( 15-C , 20-C ) :   1.4085 B( 16-C , 17-C ) :   1.4407 B( 16-C , 39-H ) :   0.9935
B( 17-C , 18-C ) :   1.3980 B( 17-C , 40-H ) :   0.9907 B( 18-C , 19-N ) :   1.4638
B( 18-C , 41-H ) :   1.0006 B( 19-N , 20-C ) :   1.4893

FINAL SINGLE POINT ENERGY     -1261.496455454701

DIPOLE MOMENT
-------------
                                X             Y             Z
Electronic contribution:    -21.71165      20.96835      -3.79313
Nuclear contribution   :     21.01126     -21.56219       3.81440
                        -----------------------------------------
Total Dipole Moment    :     -0.70039      -0.59384       0.02126
                        -----------------------------------------
Magnitude (a.u.)       :      0.91850
Magnitude (Debye)      :      2.33464

Rotational constants in cm-1:     0.008719     0.007534     0.004652
Rotational constants in MHz :   261.384595   225.877757   139.471352

                             ****ORCA TERMINATED NORMALLY****
TOTAL RUN TIME: 0 days 0 hours 0 minutes 27 seconds 306 msec
