                         Program Version 5.0.3 -  RELEASE  -
|  1> !RHF def2-SVP TightSCF PAL16
|  2> *xyz 0 1
|  3> C -0.3106375130641019 -1.670412403655166 -2.4583555771555754
|  4> C -1.1806844126939553 -0.6832170787987858 -1.6859695019044232
|  5> C -0.8891275624197622 -0.6057470335677096 -0.16779335694924877
|  6> C -1.2694047374488182 -1.9419620383166105 0.5032666735083878
|  7> C -1.6567140134704499 0.5560107374524729 0.549469813332767
|  8> N -3.12993672389947 0.41377888422088194 0.5704201061664541
|  9> C -3.7561243430789193 1.2371513950789979 -0.46936833366118097
| 10> C -3.6666609377495005 0.8011913789421621 1.8778648798430861
| 11> O 0.5443979707415862 -0.48620266060128015 0.08864242007938618
| 12> C 1.232873238867091 0.5984344545204492 -0.3365599753735276
| 13> O 0.7779231053716841 1.5560394827680255 -0.9394664605616673
| 14> C 2.6690699657896877 0.4755294603426592 0.03596214710685609
| 15> C 3.5346373141940464 1.5217073528614242 -0.312968270659621
| 16> C 4.890554819404073 1.4537706833622996 0.013564145728678294
| 17> C 5.389595747123929 0.3413604622368135 0.6895604319060882
| 18> C 4.536166519469864 -0.7043617865369795 1.039945303184609
| 19> C 3.1788089995773423 -0.64018129737162 0.7150561602539751
| 20> H 0.7530744808293789 -1.434823687848153 -2.3631897432260365
| 21> H -0.5638075354978533 -1.6322204909575833 -3.5231279965683697
| 22> H -0.4705309083287339 -2.698014881063606 -2.12033237516134
| 23> H -2.2296460083955894 -0.9562956927496873 -1.8502985781718553
| 24> H -1.0417230663935524 0.3039819959307618 -2.1410889743021935
| 25> H -1.131207473784859 -1.8816250619178507 1.589480136495067
| 26> H -0.6192110611118262 -2.757063617896516 0.16710948978551304
| 27> H -2.3080286727467136 -2.2236979922538453 0.3032109374506059
| 28> H -1.3757128600407396 1.5311260629037058 0.13473014886971632
| 29> H -1.2676883880009666 0.5885110540931454 1.5782626340739814
| 30> H -3.5743852335900765 2.3072393450023423 -0.31449466055372033
| 31> H -4.839686049938903 1.0732996712567884 -0.4819517141897722
| 32> H -3.393184649492151 0.9728552166091613 -1.4661201247271762
| 33> H -4.755419915852242 0.6786698239698377 1.9000938299007106
| 34> H -3.2657316798764193 0.15159882191507612 2.664131354537509
| 35> H -3.429551641470847 1.8409169573695927 2.13140972578114
| 36> H 3.1554979782755863 2.394357461445991 -0.8417635303921285
| 37> H 5.5562095111163154 2.268648893531152 -0.2604070978921514
| 38> H 6.445749212158474 0.288888203096647 0.943145118153348
| 39> H 4.927759179939499 -1.571550213512728 1.5663216436282787
| 40> H 2.53248734548906 -1.4676918618618406 0.9968662926212414
| 41> *
| 42>
| 43>                          ****END OF INPUT****

CARTESIAN COORDINATES (ANGSTROEM)
---------------------------------
  C     -0.310638   -1.670412   -2.458356
  C     -1.180684   -0.683217   -1.685970
  C     -0.889128   -0.605747   -0.167793
  C     -1.269405   -1.941962    0.503267
  C     -1.656714    0.556011    0.549470
  N     -3.129937    0.413779    0.570420
  C     -3.756124    1.237151   -0.469368
  C     -3.666661    0.801191    1.877865
  O      0.544398   -0.486203    0.088642
  C      1.232873    0.598434   -0.336560
  O      0.777923    1.556039   -0.939466
  C      2.669070    0.475529    0.035962
  C      3.534637    1.521707   -0.312968
  C      4.890555    1.453771    0.013564
  C      5.389596    0.341360    0.689560
  C      4.536167   -0.704362    1.039945
  C      3.178809   -0.640181    0.715056
  H      0.753074   -1.434824   -2.363190
  H     -0.563808   -1.632220   -3.523128
  H     -0.470531   -2.698015   -2.120332
  H     -2.229646   -0.956296   -1.850299
  H     -1.041723    0.303982   -2.141089
  H     -1.131207   -1.881625    1.589480
  H     -0.619211   -2.757064    0.167109
  H     -2.308029   -2.223698    0.303211
  H     -1.375713    1.531126    0.134730
  H     -1.267688    0.588511    1.578263
  H     -3.574385    2.307239   -0.314495
  H     -4.839686    1.073300   -0.481952
  H     -3.393185    0.972855   -1.466120
  H     -4.755420    0.678670    1.900094
  H     -3.265732    0.151599    2.664131
  H     -3.429552    1.840917    2.131410
  H      3.155498    2.394357   -0.841764
  H      5.556210    2.268649   -0.260407
  H      6.445749    0.288888    0.943145
  H      4.927759   -1.571550    1.566322
  H      2.532487   -1.467692    0.996866

 Total Charge           Charge          ....    0
 Multiplicity           Mult            ....    1
 Number of Electrons    NEL             ....  128
 Basis Dimension        Dim             ....  343

ORBITAL ENERGIES
----------------

  NO   OCC          E(Eh)            E(eV)
   0   2.0000     -20.594358      -560.4010
   1   2.0000     -20.538418      -558.8788
   2   2.0000     -15.548067      -423.0844
   3   2.0000     -11.389979      -309.9371
   4   2.0000     -11.301001      -307.5159
   5   2.0000     -11.254387      -306.2474
   6   2.0000     -11.253923      -306.2348
   7   2.0000     -11.252586      -306.1984
   8   2.0000     -11.251011      -306.1556
   9   2.0000     -11.250693      -306.1469
  10   2.0000     -11.250235      -306.1345
  11   2.0000     -11.246736      -306.0392
  12   2.0000     -11.245813      -306.0141
  13   2.0000     -11.245171      -305.9967
  14   2.0000     -11.221028      -305.3397
  15   2.0000     -11.218562      -305.2726
  16   2.0000     -11.216527      -305.2172
  17   2.0000      -1.435453       -39.0607
  18   2.0000      -1.339859       -36.4594
  19   2.0000      -1.208885       -32.8954
  20   2.0000      -1.153972       -31.4012
  21   2.0000      -1.076201       -29.2849
  22   2.0000      -1.028095       -27.9759
  23   2.0000      -1.013272       -27.5725
  24   2.0000      -0.987575       -26.8733
  25   2.0000      -0.938495       -25.5378
  26   2.0000      -0.929799       -25.3011
  27   2.0000      -0.887662       -24.1545
  28   2.0000      -0.853363       -23.2212
  29   2.0000      -0.831378       -22.6229
  30   2.0000      -0.811987       -22.0953
  31   2.0000      -0.796860       -21.6837
  32   2.0000      -0.737442       -20.0668
  33   2.0000      -0.714701       -19.4480
  34   2.0000      -0.674419       -18.3519
  35   2.0000      -0.670148       -18.2357
  36   2.0000      -0.662571       -18.0295
  37   2.0000      -0.640416       -17.4266
  38   2.0000      -0.631011       -17.1707
  39   2.0000      -0.628779       -17.1100
  40   2.0000      -0.620710       -16.8904
  41   2.0000      -0.616710       -16.7815
  42   2.0000      -0.598947       -16.2982
  43   2.0000      -0.596586       -16.2339
  44   2.0000      -0.584869       -15.9151
  45   2.0000      -0.558026       -15.1847
  46   2.0000      -0.551601       -15.0098
  47   2.0000      -0.542794       -14.7702
  48   2.0000      -0.531511       -14.4632
  49   2.0000      -0.528049       -14.3689
  50   2.0000      -0.522285       -14.2121
  51   2.0000      -0.516178       -14.0459
  52   2.0000      -0.513379       -13.9697
  53   2.0000      -0.511013       -13.9054
  54   2.0000      -0.504641       -13.7320
  55   2.0000      -0.498261       -13.5584
  56   2.0000      -0.484368       -13.1803
  57   2.0000      -0.474768       -12.9191
  58   2.0000      -0.465519       -12.6674
  59   2.0000      -0.444439       -12.0938
  60   2.0000      -0.432761       -11.7760
  61   2.0000      -0.357819        -9.7368
  62   2.0000      -0.350521        -9.5382
  63   2.0000      -0.345047        -9.3892
  64   0.0000       0.084228         2.2920
  65   0.0000       0.125750         3.4218
  66   0.0000       0.171169         4.6577
  67   0.0000       0.184010         5.0072
  68   0.0000       0.193644         5.2693

MULLIKEN ATOMIC CHARGES
-----------------------
   0 C :   -0.000443
   1 C :   -0.090964
   2 C :    0.001120
   3 C :    0.056769
   4 C :    0.221782
   5 N :   -0.635935
   6 C :    0.146973
   7 C :    0.148615
   8 O :   -0.591538
   9 C :    0.667592
  10 O :   -0.423424
  11 C :   -0.282089
  12 C :    0.034467
  13 C :   -0.053204
  14 C :   -0.007550
  15 C :   -0.053111
  16 C :    0.046307
  17 H :    0.032912
  18 H :    0.032488
  19 H :    0.025477
  20 H :    0.052037
  21 H :    0.064122
  22 H :    0.024094
  23 H :    0.035457
  24 H :    0.050719
  25 H :    0.055966
  26 H :    0.027368
  27 H :    0.009134
  28 H :    0.029042
  29 H :    0.034882
  30 H :    0.030094
  31 H :    0.032834
  32 H :    0.007132
  33 H :    0.067730
  34 H :    0.046510
  35 H :    0.048551
  36 H :    0.045429
  37 H :    0.062653
Sum of atomic charges:   -0.0000000

LOEWDIN ATOMIC CHARGES
----------------------
   0 C :   -0.031191
   1 C :   -0.030143
   2 C :    0.092677
   3 C :   -0.024132
   4 C :    0.065559
   5 N :   -0.205568
   6 C :    0.054804
   7 C :    0.057087
   8 O :   -0.183305
   9 C :    0.229226
  10 O :   -0.277019
  11 C :   -0.098901
  12 C :    0.029038
  13 C :   -0.036412
  14 C :    0.003192
  15 C :   -0.037566
  16 C :    0.019966
  17 H :    0.015345
  18 H :    0.018812
  19 H :    0.012471
  20 H :    0.021987
  21 H :    0.021154
  22 H :    0.016146
  23 H :    0.016569
  24 H :    0.026026
  25 H :    0.011453
  26 H :    0.012920
  27 H :   -0.005236
  28 H :    0.011459
  29 H :    0.012249
  30 H :    0.012267
  31 H :    0.011224
  32 H :   -0.005970
  33 H :    0.040137
  34 H :    0.029027
  35 H :    0.029878
  36 H :    0.028583
  37 H :    0.036188

  Mayer bond orders larger than 0.100000
B(  0-C ,  1-C ) :   1.0382 B(  0-C , 17-H ) :   0.9837 B(  0-C , 18-H ) :   0.9876
B(  0-C , 19-H ) :   0.9840 B(  1-C ,  2-C ) :   0.9954 B(  1-C , 20-H ) :   0.9638
B(  1-C , 21-H ) :   0.9686 B(  2-C ,  3-C ) :   1.0108 B(  2-C ,  4-C ) :   1.0216
B(  2-C ,  8-O ) :   0.7128 B(  3-C , 22-H ) :   0.9815 B(  3-C , 23-H ) :   0.9814
B(  3-C , 24-H ) :   0.9792 B(  4-C ,  5-N ) :   0.9264 B(  4-C , 25-H ) :   0.9674
B(  4-C , 26-H ) :   0.9738 B(  5-N ,  6-C ) :   0.9392 B(  5-N ,  7-C ) :   0.9464
B(  6-C , 27-H ) :   0.9794 B(  6-C , 28-H ) :   0.9904 B(  6-C , 29-H ) :   0.9894
B(  7-C , 30-H ) :   0.9915 B(  7-C , 31-H ) :   0.9916 B(  7-C , 32-H ) :   0.9780
B(  8-O ,  9-C ) :   1.0873 B(  9-C , 10-O ) :   1.9482 B(  9-C , 11-C ) :   0.9820
B( 11-C , 12-C ) :   1.4092 B( 11-C , 16-C ) :   1.3945 B( 12-C , 13-C ) :   1.4264
B( 12-C , 33-H ) :   0.9974 B( 13-C , 14-C ) :   1.4036 B( 13-C , 34-H ) :   1.0013
B( 14-C , 15-C ) :   1.4066 B( 14-C , 35-H ) :   0.9985 B( 15-C , 16-C ) :   1.4238
B( 15-C , 36-H ) :   1.0004 B( 16-C , 37-H ) :   0.9976

FINAL SINGLE POINT ENERGY      -746.005873424520

DIPOLE MOMENT
-------------
                                X             Y             Z
Electronic contribution:     20.40502       4.23373       1.17008
Nuclear contribution   :    -20.19104      -4.54578      -0.71637
                        -----------------------------------------
Total Dipole Moment    :      0.21399      -0.31205       0.45371
                        -----------------------------------------
Magnitude (a.u.)       :      0.59078
Magnitude (Debye)      :      1.50163

Rotational constants in cm-1:     0.030512     0.007574     0.007316
Rotational constants in MHz :   914.723182   227.063659   219.326901

                             ****ORCA TERMINATED NORMALLY****
TOTAL RUN TIME: 0 days 0 hours 0 minutes 17 seconds 607 msec
