                         Program Version 5.0.3 -  RELEASE  -
|  1> !RHF def2-SVP TightSCF PAL16
|  2> *xyz 0 1
|  3> C -6.8478528551473685 1.8743249432212772 0.4646463138318678
|  4> C -5.851261514983163 1.985913388180106 -0.6841795093272915
|  5> C -5.338615764600949 3.41483857483052 -0.8164531720103544
|  6> O -4.712512435149092 1.1504697514126585 -0.41234990498959884
|  7> C -4.821512671956423 -0.1537921394862117 -0.7803318845671803
|  8> O -5.795963819581514 -0.661534934850614 -1.318006278718065
|  9> C -3.6143151321767677 -0.8654771996469903 -0.4478675154460343
| 10> C -2.4426078305764736 -0.4447519441464503 0.1553929655794277
| 11> C -1.554636234024325 -1.5558221266155123 0.2525494036742567
| 12> C -0.2502975905416518 -1.7241606793874134 0.7731309850075619
| 13> O 0.35726557247278823 -0.6167219959617708 1.3008913980174226
| 14> C 1.414541692768264 -0.8195539207814196 2.2390751441521406
| 15> C 2.7855220126729394 -0.6599854978551571 1.576109603956988
| 16> O 3.8170035167899803 -0.8695034952624234 2.550005679215187
| 17> C 2.9641784026495617 0.7393887010656488 0.9506658273036388
| 18> N 4.374307168568699 0.9632079417205462 0.5695238307298789
| 19> C 4.692269960139151 0.8192231022500086 -0.8675295589431986
| 20> C 6.2261375853469385 0.929674091396483 -0.9700669451970083
| 21> C 4.070474330217526 1.9589739361912308 -1.6933287326338848
| 22> C 4.269475338510481 -0.5397786767016033 -1.4456355419209648
| 23> C 0.33788270641936785 -2.994602496032854 0.6798223979953696
| 24> C -0.3495857769263005 -4.069566617911927 0.11222924292490419
| 25> C -1.6435563996805196 -3.918336364211621 -0.38935403484415987
| 26> C -2.217665200386546 -2.647251924903319 -0.3070071894396247
| 27> N -3.453846321852863 -2.2060641602534656 -0.7176326767899363
| 28> H -6.373019015652162 2.1230644557371185 1.420944540833425
| 29> H -7.702782319699138 2.5403762860675294 0.31341224552715224
| 30> H -7.221737022211997 0.8490108479012883 0.5581357256840868
| 31> H -6.325310776185681 1.6975576333493458 -1.6308675943346107
| 32> H -6.153855389928588 4.112138198660404 -1.0313970198844904
| 33> H -4.6006461683860485 3.4803733724972865 -1.6231797315831422
| 34> H -4.832399050916167 3.737507825523988 0.09947084902124198
| 35> H -2.23570452795629 0.5606862818084812 0.49813106781576866
| 36> H 1.3316258468537168 -1.76897946272638 2.783811859326699
| 37> H 1.3021560607504483 -0.05135760023204876 3.0149816513399004
| 38> H 2.911336984720613 -1.4231995194612814 0.8037058466282725
| 39> H 4.607919880540272 -0.4567318090555721 2.1419995158446348
| 40> H 2.258766588030359 0.9089715347036669 0.13224643076971682
| 41> H 2.7309388336484215 1.486677979218947 1.7197889531310206
| 42> H 4.6301565843148245 1.9123058664232249 0.8524673517646878
| 43> H 6.723303002994194 0.1371531559566395 -0.3978032868311458
| 44> H 6.5881070137619435 1.8929966476559703 -0.5885606292451334
| 45> H 6.5600001844617495 0.8451270272306179 -2.0105511918388337
| 46> H 2.9772199954187193 1.9087259473361977 -1.70906462276448
| 47> H 4.4111387376351 1.9139810260390235 -2.734822982436946
| 48> H 4.353893536291304 2.940407164909241 -1.2981493556984054
| 49> H 4.621540196018493 -0.652627526934515 -2.478364668220133
| 50> H 3.1811026493288828 -0.6585755034974281 -1.4648575045729806
| 51> H 4.694947138778604 -1.3669924280524501 -0.8656016694773084
| 52> H 1.3463540474593616 -3.1774035022428984 1.0375274047048921
| 53> H 0.1332285268932458 -5.04286453267888 0.05779943534704494
| 54> H -2.1738499357464427 -4.75713719698162 -0.8281874293947216
| 55> H -4.159260340189612 -2.780302425416716 -1.1611693314383063
| 56> *
| 57>
| 58>                          ****END OF INPUT****

CARTESIAN COORDINATES (ANGSTROEM)
---------------------------------
  C     -6.847853    1.874325    0.464646
  C     -5.851262    1.985913   -0.684180
  C     -5.338616    3.414839   -0.816453
  O     -4.712512    1.150470   -0.412350
  C     -4.821513   -0.153792   -0.780332
  O     -5.795964   -0.661535   -1.318006
  C     -3.614315   -0.865477   -0.447868
  C     -2.442608   -0.444752    0.155393
  C     -1.554636   -1.555822    0.252549
  C     -0.250298   -1.724161    0.773131
  O      0.357266   -0.616722    1.300891
  C      1.414542   -0.819554    2.239075
  C      2.785522   -0.659985    1.576110
  O      3.817004   -0.869503    2.550006
  C      2.964178    0.739389    0.950666
  N      4.374307    0.963208    0.569524
  C      4.692270    0.819223   -0.867530
  C      6.226138    0.929674   -0.970067
  C      4.070474    1.958974   -1.693329
  C      4.269475   -0.539779   -1.445636
  C      0.337883   -2.994602    0.679822
  C     -0.349586   -4.069567    0.112229
  C     -1.643556   -3.918336   -0.389354
  C     -2.217665   -2.647252   -0.307007
  N     -3.453846   -2.206064   -0.717633
  H     -6.373019    2.123064    1.420945
  H     -7.702782    2.540376    0.313412
  H     -7.221737    0.849011    0.558136
  H     -6.325311    1.697558   -1.630868
  H     -6.153855    4.112138   -1.031397
  H     -4.600646    3.480373   -1.623180
  H     -4.832399    3.737508    0.099471
  H     -2.235705    0.560686    0.498131
  H      1.331626   -1.768979    2.783812
  H      1.302156   -0.051358    3.014982
  H      2.911337   -1.423200    0.803706
  H      4.607920   -0.456732    2.142000
  H      2.258767    0.908972    0.132246
  H      2.730939    1.486678    1.719789
  H      4.630157    1.912306    0.852467
  H      6.723303    0.137153   -0.397803
  H      6.588107    1.892997   -0.588561
  H      6.560000    0.845127   -2.010551
  H      2.977220    1.908726   -1.709065
  H      4.411139    1.913981   -2.734823
  H      4.353894    2.940407   -1.298149
  H      4.621540   -0.652628   -2.478365
  H      3.181103   -0.658576   -1.464858
  H      4.694947   -1.366992   -0.865602
  H      1.346354   -3.177404    1.037527
  H      0.133229   -5.042865    0.057799
  H     -2.173850   -4.757137   -0.828187
  H     -4.159260   -2.780302   -1.161169

 Total Charge           Charge          ....    0
 Multiplicity           Mult            ....    1
 Number of Electrons    NEL             ....  188
 Basis Dimension        Dim             ....  490

ORBITAL ENERGIES
----------------

  NO   OCC          E(Eh)            E(eV)
   0   2.0000     -20.596207      -560.4513
   1   2.0000     -20.585817      -560.1686
   2   2.0000     -20.543888      -559.0276
   3   2.0000     -20.533178      -558.7362
   4   2.0000     -15.607201      -424.6935
   5   2.0000     -15.555683      -423.2917
   6   2.0000     -11.394951      -310.0724
   7   2.0000     -11.317237      -307.9577
   8   2.0000     -11.294684      -307.3440
   9   2.0000     -11.289695      -307.2082
  10   2.0000     -11.281507      -306.9854
  11   2.0000     -11.276694      -306.8544
  12   2.0000     -11.275611      -306.8250
  13   2.0000     -11.271014      -306.6999
  14   2.0000     -11.256994      -306.3184
  15   2.0000     -11.250411      -306.1392
  16   2.0000     -11.243908      -305.9623
  17   2.0000     -11.235160      -305.7242
  18   2.0000     -11.230798      -305.6055
  19   2.0000     -11.230667      -305.6020
  20   2.0000     -11.227666      -305.5203
  21   2.0000     -11.227558      -305.5174
  22   2.0000     -11.225788      -305.4692
  23   2.0000     -11.224077      -305.4226
  24   2.0000     -11.223703      -305.4125
  25   2.0000      -1.441216       -39.2175
  26   2.0000      -1.397544       -38.0291
  27   2.0000      -1.343570       -36.5604
  28   2.0000      -1.324864       -36.0514
  29   2.0000      -1.295855       -35.2620
  30   2.0000      -1.206573       -32.8325
  31   2.0000      -1.132093       -30.8058
  32   2.0000      -1.072154       -29.1748
  33   2.0000      -1.057808       -28.7844
  34   2.0000      -1.051742       -28.6194
  35   2.0000      -1.014237       -27.5988
  36   2.0000      -1.009088       -27.4587
  37   2.0000      -0.973233       -26.4830
  38   2.0000      -0.935245       -25.4493
  39   2.0000      -0.933062       -25.3899
  40   2.0000      -0.931017       -25.3343
  41   2.0000      -0.909493       -24.7485
  42   2.0000      -0.891500       -24.2590
  43   2.0000      -0.836976       -22.7753
  44   2.0000      -0.811189       -22.0736
  45   2.0000      -0.810282       -22.0489
  46   2.0000      -0.794534       -21.6204
  47   2.0000      -0.764090       -20.7920
  48   2.0000      -0.753177       -20.4950
  49   2.0000      -0.741439       -20.1756
  50   2.0000      -0.714235       -19.4353
  51   2.0000      -0.694487       -18.8980
  52   2.0000      -0.681658       -18.5489
  53   2.0000      -0.669026       -18.2051
  54   2.0000      -0.664804       -18.0902
  55   2.0000      -0.660448       -17.9717
  56   2.0000      -0.655599       -17.8398
  57   2.0000      -0.653484       -17.7822
  58   2.0000      -0.638243       -17.3675
  59   2.0000      -0.630341       -17.1524
  60   2.0000      -0.620650       -16.8888
  61   2.0000      -0.614379       -16.7181
  62   2.0000      -0.604549       -16.4506
  63   2.0000      -0.602890       -16.4055
  64   2.0000      -0.593397       -16.1471
  65   2.0000      -0.582990       -15.8640
  66   2.0000      -0.580910       -15.8074
  67   2.0000      -0.574648       -15.6370
  68   2.0000      -0.569020       -15.4838
  69   2.0000      -0.555085       -15.1046
  70   2.0000      -0.552101       -15.0234
  71   2.0000      -0.548349       -14.9213
  72   2.0000      -0.545362       -14.8401
  73   2.0000      -0.538222       -14.6458
  74   2.0000      -0.536515       -14.5993
  75   2.0000      -0.529777       -14.4160
  76   2.0000      -0.522322       -14.2131
  77   2.0000      -0.520901       -14.1744
  78   2.0000      -0.515352       -14.0234
  79   2.0000      -0.507441       -13.8082
  80   2.0000      -0.497484       -13.5372
  81   2.0000      -0.493987       -13.4421
  82   2.0000      -0.488243       -13.2858
  83   2.0000      -0.483069       -13.1450
  84   2.0000      -0.478569       -13.0225
  85   2.0000      -0.465165       -12.6578
  86   2.0000      -0.461784       -12.5658
  87   2.0000      -0.452233       -12.3059
  88   2.0000      -0.450372       -12.2552
  89   2.0000      -0.431267       -11.7354
  90   2.0000      -0.383455       -10.4343
  91   2.0000      -0.381713       -10.3869
  92   2.0000      -0.320175        -8.7124
  93   2.0000      -0.283923        -7.7259
  94   0.0000       0.077595         2.1115
  95   0.0000       0.155758         4.2384
  96   0.0000       0.158718         4.3189
  97   0.0000       0.170517         4.6400
  98   0.0000       0.177327         4.8253

MULLIKEN ATOMIC CHARGES
-----------------------
   0 C :   -0.026497
   1 C :    0.112119
   2 C :   -0.003039
   3 O :   -0.554423
   4 C :    0.590682
   5 O :   -0.429222
   6 C :    0.028905
   7 C :    0.039191
   8 C :   -0.154934
   9 C :    0.362829
  10 O :   -0.574653
  11 C :    0.288362
  12 C :    0.181589
  13 O :   -0.486696
  14 C :    0.151527
  15 N :   -0.483550
  16 C :   -0.267319
  17 C :    0.066942
  18 C :    0.059504
  19 C :    0.035954
  20 C :   -0.180734
  21 C :    0.027968
  22 C :   -0.104756
  23 C :    0.229865
  24 N :   -0.342323
  25 H :    0.035913
  26 H :    0.035172
  27 H :    0.052711
  28 H :    0.059432
  29 H :    0.035250
  30 H :    0.040788
  31 H :    0.035457
  32 H :    0.050658
  33 H :    0.055594
  34 H :    0.037006
  35 H :    0.016485
  36 H :    0.212259
  37 H :    0.043590
  38 H :    0.022657
  39 H :    0.138340
  40 H :    0.034537
  41 H :    0.019619
  42 H :    0.024983
  43 H :    0.032573
  44 H :    0.028486
  45 H :    0.020321
  46 H :    0.035002
  47 H :    0.041010
  48 H :    0.043930
  49 H :    0.044093
  50 H :    0.045621
  51 H :    0.022651
  52 H :    0.168572
Sum of atomic charges:    0.0000000

LOEWDIN ATOMIC CHARGES
----------------------
   0 C :   -0.039060
   1 C :    0.111475
   2 C :   -0.033706
   3 O :   -0.182537
   4 C :    0.215398
   5 O :   -0.287982
   6 C :   -0.044392
   7 C :    0.001780
   8 C :   -0.096909
   9 C :    0.128651
  10 O :   -0.192510
  11 C :    0.134702
  12 C :    0.088113
  13 O :   -0.214947
  14 C :    0.050063
  15 N :   -0.146471
  16 C :    0.003528
  17 C :   -0.023840
  18 C :   -0.033098
  19 C :   -0.025665
  20 C :   -0.116490
  21 C :    0.010627
  22 C :   -0.086624
  23 C :    0.065098
  24 N :    0.018696
  25 H :    0.020272
  26 H :    0.021958
  27 H :    0.024127
  28 H :    0.018244
  29 H :    0.022383
  30 H :    0.020902
  31 H :    0.020382
  32 H :    0.036020
  33 H :    0.017482
  34 H :    0.017382
  35 H :   -0.002717
  36 H :    0.074860
  37 H :    0.008483
  38 H :    0.013747
  39 H :    0.058850
  40 H :    0.017095
  41 H :    0.011526
  42 H :    0.014386
  43 H :    0.014550
  44 H :    0.018074
  45 H :    0.011825
  46 H :    0.022220
  47 H :    0.016395
  48 H :    0.019233
  49 H :    0.027386
  50 H :    0.031365
  51 H :    0.025136
  52 H :    0.094535

  Mayer bond orders larger than 0.100000
B(  0-C ,  1-C ) :   1.0449 B(  0-C , 25-H ) :   0.9756 B(  0-C , 26-H ) :   0.9826
B(  0-C , 27-H ) :   0.9829 B(  1-C ,  2-C ) :   1.0349 B(  1-C ,  3-O ) :   0.7711
B(  1-C , 28-H ) :   0.9689 B(  2-C , 29-H ) :   0.9816 B(  2-C , 30-H ) :   0.9851
B(  2-C , 31-H ) :   0.9777 B(  3-O ,  4-C ) :   1.1305 B(  4-C ,  5-O ) :   1.9653
B(  4-C ,  6-C ) :   1.0012 B(  6-C ,  7-C ) :   1.5980 B(  6-C , 24-N ) :   1.0845
B(  7-C ,  8-C ) :   1.2055 B(  7-C , 32-H ) :   1.0173 B(  8-C ,  9-C ) :   1.2860
B(  8-C , 23-C ) :   1.3287 B(  9-C , 10-O ) :   1.0321 B(  9-C , 20-C ) :   1.4481
B( 10-O , 11-C ) :   0.8292 B( 11-C , 12-C ) :   1.0349 B( 11-C , 33-H ) :   0.9764
B( 11-C , 34-H ) :   0.9669 B( 12-C , 13-O ) :   0.9385 B( 12-C , 14-C ) :   1.0019
B( 12-C , 35-H ) :   0.9560 B( 13-O , 36-H ) :   0.9391 B( 14-C , 15-N ) :   0.9626
B( 14-C , 37-H ) :   0.9663 B( 14-C , 38-H ) :   0.9751 B( 15-N , 16-C ) :   0.9000
B( 15-N , 39-H ) :   0.9550 B( 16-C , 17-C ) :   1.0132 B( 16-C , 18-C ) :   0.9966
B( 16-C , 19-C ) :   1.0064 B( 17-C , 40-H ) :   0.9838 B( 17-C , 41-H ) :   0.9814
B( 17-C , 42-H ) :   0.9845 B( 18-C , 43-H ) :   0.9814 B( 18-C , 44-H ) :   0.9804
B( 18-C , 45-H ) :   0.9800 B( 19-C , 46-H ) :   0.9808 B( 19-C , 47-H ) :   0.9801
B( 19-C , 48-H ) :   0.9788 B( 20-C , 21-C ) :   1.3092 B( 20-C , 49-H ) :   1.0033
B( 21-C , 22-C ) :   1.5046 B( 21-C , 50-H ) :   0.9935 B( 22-C , 23-C ) :   1.2871
B( 22-C , 51-H ) :   1.0136 B( 23-C , 24-N ) :   1.1451 B( 24-N , 52-H ) :   0.9379

FINAL SINGLE POINT ENERGY     -1143.302324244977

DIPOLE MOMENT
-------------
                                X             Y             Z
Electronic contribution:    -25.21822     -19.07071       4.51842
Nuclear contribution   :     25.72643      19.77778      -5.07187
                        -----------------------------------------
Total Dipole Moment    :      0.50821       0.70708      -0.55345
                        -----------------------------------------
Magnitude (a.u.)       :      1.03176
Magnitude (Debye)      :      2.62254

Rotational constants in cm-1:     0.010266     0.002886     0.002528
Rotational constants in MHz :   307.778380    86.514418    75.788268

                             ****ORCA TERMINATED NORMALLY****
TOTAL RUN TIME: 0 days 0 hours 0 minutes 34 seconds 431 msec
