                         Program Version 5.0.3 -  RELEASE  -
|  1> !RHF def2-SVP TightSCF PAL16
|  2> *xyz 0 1
|  3> C -3.263297054324535 -0.8447300666849931 2.413769792898945
|  4> N -2.0824292247015532 -0.21605558418992687 1.802070899221667
|  5> C -1.2032013028021735 0.3725642372313646 2.7192474067621917
|  6> O -1.412601185767901 0.2702897007344614 3.940184944037019
|  7> C 0.009168607459792477 1.2318803814353874 2.325785665178751
|  8> N 0.454583275251624 1.2583249096442897 0.9511213048250877
|  9> C 0.4167974680518783 2.47004099702713 0.30483382316608243
| 10> N 0.7597048507987663 2.501136963863423 -0.9999336372367574
| 11> O 0.13523774539210714 3.5341618081412767 0.8490416606327726
| 12> C 0.5347080713144666 -0.07121027607748422 0.3518633735124952
| 13> C 1.851546829730114 -0.44546164512775377 -0.33429864270835064
| 14> C 1.9953914714798855 -1.7238015855392192 -0.912923837425308
| 15> C 3.1949504671143636 -2.1218329001712 -1.5078199626098672
| 16> C 4.287682314483969 -1.2617201362704655 -1.5119105696031927
| 17> C 4.185190827885978 -0.013036858828803354 -0.9068385753279696
| 18> C 2.9844660083689165 0.3845088369674324 -0.31128480140739934
| 19> C -0.7842758177287218 -0.28044538297279303 -0.37085683966391203
| 20> C -0.8229936747876389 -0.4003064858154452 -1.7825988348921118
| 21> C -2.0252328646453783 -0.5386104906764855 -2.4668892020571644
| 22> Cl -2.0287473867294974 -0.6818245386905967 -4.179247016416417
| 23> C -3.2166813665098917 -0.5478509716288774 -1.7675208031356051
| 24> C -3.1971888622981113 -0.4235457220037438 -0.37549767479266605
| 25> C -1.9961891188940715 -0.2879888481293956 0.36079694197582957
| 26> H -3.5394787918519124 -1.757262116874129 1.8747497597398284
| 27> H -4.088688628831152 -0.12562247801773904 2.409752688960543
| 28> H -3.08201947022722 -1.1472502235085094 3.4495909756536918
| 29> H 0.8590446678504615 0.8480726761812363 2.9060027900097283
| 30> H -0.19507678236838982 2.240818735509582 2.700247695259321
| 31> H 0.6252942622316429 3.3991020166177206 -1.44607046309876
| 32> H 0.6720668541338454 1.6955352164800885 -1.5932366392266868
| 33> H 0.5378108978828644 -0.7955915987480767 1.182125241318998
| 34> H 1.1671231065971528 -2.431017096316455 -0.9006336358216536
| 35> H 3.2783207760466966 -3.1077920821582774 -1.9583290237329916
| 36> H 5.223870330549109 -1.5698367842215104 -1.9700356810669455
| 37> H 5.044509527973622 0.6530927019499232 -0.8861332785407635
| 38> H 2.958524762962475 1.3553886271733262 0.179445326025279
| 39> H 0.09443692060226402 -0.3788466531596455 -2.3676065129245707
| 40> H -4.165829347280442 -0.6409993789422863 -2.288751465026249
| 41> H -4.166499164412819 -0.4022779042031257 0.11778680753622596
| 42> *
| 43>
| 44>                          ****END OF INPUT****

CARTESIAN COORDINATES (ANGSTROEM)
---------------------------------
  C     -3.263297   -0.844730    2.413770
  N     -2.082429   -0.216056    1.802071
  C     -1.203201    0.372564    2.719247
  O     -1.412601    0.270290    3.940185
  C      0.009169    1.231880    2.325786
  N      0.454583    1.258325    0.951121
  C      0.416797    2.470041    0.304834
  N      0.759705    2.501137   -0.999934
  O      0.135238    3.534162    0.849042
  C      0.534708   -0.071210    0.351863
  C      1.851547   -0.445462   -0.334299
  C      1.995391   -1.723802   -0.912924
  C      3.194950   -2.121833   -1.507820
  C      4.287682   -1.261720   -1.511911
  C      4.185191   -0.013037   -0.906839
  C      2.984466    0.384509   -0.311285
  C     -0.784276   -0.280445   -0.370857
  C     -0.822994   -0.400306   -1.782599
  C     -2.025233   -0.538610   -2.466889
  Cl    -2.028747   -0.681825   -4.179247
  C     -3.216681   -0.547851   -1.767521
  C     -3.197189   -0.423546   -0.375498
  C     -1.996189   -0.287989    0.360797
  H     -3.539479   -1.757262    1.874750
  H     -4.088689   -0.125622    2.409753
  H     -3.082019   -1.147250    3.449591
  H      0.859045    0.848073    2.906003
  H     -0.195077    2.240819    2.700248
  H      0.625294    3.399102   -1.446070
  H      0.672067    1.695535   -1.593237
  H      0.537811   -0.795592    1.182125
  H      1.167123   -2.431017   -0.900634
  H      3.278321   -3.107792   -1.958329
  H      5.223870   -1.569837   -1.970036
  H      5.044510    0.653093   -0.886133
  H      2.958525    1.355389    0.179445
  H      0.094437   -0.378847   -2.367607
  H     -4.165829   -0.640999   -2.288751
  H     -4.166499   -0.402278    0.117787

 Total Charge           Charge          ....    0
 Multiplicity           Mult            ....    1
 Number of Electrons    NEL             ....  172
 Basis Dimension        Dim             ....  406

ORBITAL ENERGIES
----------------

  NO   OCC          E(Eh)            E(eV)
   0   2.0000    -104.808409     -2851.9818
   1   2.0000     -20.526423      -558.5524
   2   2.0000     -20.499352      -557.8157
   3   2.0000     -15.624166      -425.1552
   4   2.0000     -15.601372      -424.5349
   5   2.0000     -15.580838      -423.9762
   6   2.0000     -11.383462      -309.7597
   7   2.0000     -11.376934      -309.5821
   8   2.0000     -11.325020      -308.1694
   9   2.0000     -11.319582      -308.0215
  10   2.0000     -11.313828      -307.8649
  11   2.0000     -11.287829      -307.1574
  12   2.0000     -11.285628      -307.0975
  13   2.0000     -11.276285      -306.8433
  14   2.0000     -11.276088      -306.8380
  15   2.0000     -11.272709      -306.7460
  16   2.0000     -11.271865      -306.7230
  17   2.0000     -11.271533      -306.7140
  18   2.0000     -11.259029      -306.3737
  19   2.0000     -11.255415      -306.2754
  20   2.0000     -11.254724      -306.2566
  21   2.0000     -11.252817      -306.2047
  22   2.0000     -11.251608      -306.1718
  23   2.0000     -10.572297      -287.6868
  24   2.0000      -8.047436      -218.9819
  25   2.0000      -8.043807      -218.8831
  26   2.0000      -8.043732      -218.8811
  27   2.0000      -1.382335       -37.6153
  28   2.0000      -1.369300       -37.2605
  29   2.0000      -1.272723       -34.6326
  30   2.0000      -1.249289       -33.9949
  31   2.0000      -1.198988       -32.6261
  32   2.0000      -1.193888       -32.4873
  33   2.0000      -1.160872       -31.5889
  34   2.0000      -1.128271       -30.7018
  35   2.0000      -1.074677       -29.2435
  36   2.0000      -1.031385       -28.0654
  37   2.0000      -1.018833       -27.7238
  38   2.0000      -1.009894       -27.4806
  39   2.0000      -0.996575       -27.1182
  40   2.0000      -0.956443       -26.0261
  41   2.0000      -0.935440       -25.4546
  42   2.0000      -0.859185       -23.3796
  43   2.0000      -0.854347       -23.2480
  44   2.0000      -0.836735       -22.7687
  45   2.0000      -0.825212       -22.4552
  46   2.0000      -0.790301       -21.5052
  47   2.0000      -0.780321       -21.2336
  48   2.0000      -0.746197       -20.3050
  49   2.0000      -0.735465       -20.0130
  50   2.0000      -0.708355       -19.2753
  51   2.0000      -0.698366       -19.0035
  52   2.0000      -0.690579       -18.7916
  53   2.0000      -0.665699       -18.1146
  54   2.0000      -0.660304       -17.9678
  55   2.0000      -0.654143       -17.8001
  56   2.0000      -0.653878       -17.7929
  57   2.0000      -0.638031       -17.3617
  58   2.0000      -0.637025       -17.3343
  59   2.0000      -0.629998       -17.1431
  60   2.0000      -0.628112       -17.0918
  61   2.0000      -0.607413       -16.5286
  62   2.0000      -0.600268       -16.3341
  63   2.0000      -0.597026       -16.2459
  64   2.0000      -0.587486       -15.9863
  65   2.0000      -0.579303       -15.7636
  66   2.0000      -0.570534       -15.5250
  67   2.0000      -0.560507       -15.2522
  68   2.0000      -0.553100       -15.0506
  69   2.0000      -0.546688       -14.8761
  70   2.0000      -0.540466       -14.7068
  71   2.0000      -0.518772       -14.1165
  72   2.0000      -0.513944       -13.9851
  73   2.0000      -0.508981       -13.8501
  74   2.0000      -0.502452       -13.6724
  75   2.0000      -0.490662       -13.3516
  76   2.0000      -0.466227       -12.6867
  77   2.0000      -0.449411       -12.2291
  78   2.0000      -0.438893       -11.9429
  79   2.0000      -0.425347       -11.5743
  80   2.0000      -0.417440       -11.3591
  81   2.0000      -0.400007       -10.8848
  82   2.0000      -0.367160        -9.9909
  83   2.0000      -0.351888        -9.5754
  84   2.0000      -0.346938        -9.4407
  85   2.0000      -0.326071        -8.8728
  86   0.0000       0.088821         2.4169
  87   0.0000       0.095676         2.6035
  88   0.0000       0.109915         2.9909
  89   0.0000       0.118268         3.2182
  90   0.0000       0.166375         4.5273

MULLIKEN ATOMIC CHARGES
-----------------------
   0 C :    0.156139
   1 N :   -0.679550
   2 C :    0.420407
   3 O :   -0.460644
   4 C :    0.225184
   5 N :   -0.674387
   6 C :    0.585061
   7 N :   -0.296767
   8 O :   -0.474335
   9 C :    0.348383
  10 C :   -0.193070
  11 C :   -0.030983
  12 C :   -0.035058
  13 C :   -0.029734
  14 C :   -0.036222
  15 C :    0.005280
  16 C :   -0.178388
  17 C :   -0.030596
  18 C :    0.044171
  19 Cl:   -0.127303
  20 C :    0.011227
  21 C :   -0.093581
  22 C :    0.311177
  23 H :    0.045007
  24 H :    0.049065
  25 H :    0.097149
  26 H :    0.076175
  27 H :    0.127609
  28 H :    0.171864
  29 H :    0.157774
  30 H :    0.090656
  31 H :    0.046936
  32 H :    0.047476
  33 H :    0.046947
  34 H :    0.047867
  35 H :    0.055062
  36 H :    0.065707
  37 H :    0.053550
  38 H :    0.054745
Sum of atomic charges:    0.0000000

LOEWDIN ATOMIC CHARGES
----------------------
   0 C :    0.080225
   1 N :   -0.131071
   2 C :    0.197018
   3 O :   -0.314109
   4 C :    0.062976
   5 N :   -0.140237
   6 C :    0.193237
   7 N :   -0.049137
   8 O :   -0.354402
   9 C :    0.073771
  10 C :   -0.048686
  11 C :   -0.022402
  12 C :   -0.022902
  13 C :   -0.020823
  14 C :   -0.020790
  15 C :   -0.013002
  16 C :   -0.049846
  17 C :   -0.038823
  18 C :   -0.126079
  19 Cl:    0.100649
  20 C :   -0.025307
  21 C :   -0.029155
  22 C :    0.066920
  23 H :    0.017202
  24 H :    0.016505
  25 H :    0.037636
  26 H :    0.037024
  27 H :    0.060968
  28 H :    0.092289
  29 H :    0.066621
  30 H :    0.045618
  31 H :    0.027802
  32 H :    0.030361
  33 H :    0.029125
  34 H :    0.031022
  35 H :    0.032167
  36 H :    0.032931
  37 H :    0.037696
  38 H :    0.037007

  Mayer bond orders larger than 0.100000
B(  0-C ,  1-N ) :   0.8708 B(  0-C , 23-H ) :   0.9868 B(  0-C , 24-H ) :   0.9891
B(  0-C , 25-H ) :   0.9777 B(  1-N ,  2-C ) :   1.0465 B(  1-N , 22-C ) :   0.9120
B(  2-C ,  3-O ) :   1.9051 B(  2-C ,  4-C ) :   0.9771 B(  4-C ,  5-N ) :   0.8689
B(  4-C , 26-H ) :   0.9777 B(  4-C , 27-H ) :   0.9469 B(  5-N ,  6-C ) :   1.0279
B(  5-N ,  9-C ) :   0.8863 B(  6-C ,  7-N ) :   1.1766 B(  6-C ,  8-O ) :   1.9300
B(  7-N , 28-H ) :   0.9512 B(  7-N , 29-H ) :   0.9418 B(  9-C , 10-C ) :   0.9881
B(  9-C , 16-C ) :   0.9656 B(  9-C , 30-H ) :   0.9581 B( 10-C , 11-C ) :   1.3987
B( 10-C , 15-C ) :   1.4439 B( 11-C , 12-C ) :   1.4418 B( 11-C , 31-H ) :   1.0045
B( 12-C , 13-C ) :   1.4027 B( 12-C , 32-H ) :   0.9994 B( 13-C , 14-C ) :   1.4203
B( 13-C , 33-H ) :   0.9994 B( 14-C , 15-C ) :   1.4185 B( 14-C , 34-H ) :   0.9986
B( 15-C , 35-H ) :   0.9940 B( 16-C , 17-C ) :   1.4341 B( 16-C , 22-C ) :   1.4204
B( 17-C , 18-C ) :   1.4155 B( 17-C , 36-H ) :   0.9909 B( 18-C , 19-Cl) :   0.9553
B( 18-C , 20-C ) :   1.4105 B( 20-C , 21-C ) :   1.4253 B( 20-C , 37-H ) :   1.0021
B( 21-C , 22-C ) :   1.4070 B( 21-C , 38-H ) :   0.9973

FINAL SINGLE POINT ENERGY     -1424.791887640286

DIPOLE MOMENT
-------------
                                X             Y             Z
Electronic contribution:     -6.58115       0.79698     -12.28384
Nuclear contribution   :      6.66859      -2.29055      10.79080
                        -----------------------------------------
Total Dipole Moment    :      0.08743      -1.49357      -1.49304
                        -----------------------------------------
Magnitude (a.u.)       :      2.11366
Magnitude (Debye)      :      5.37250

Rotational constants in cm-1:     0.008451     0.007672     0.005277
Rotational constants in MHz :   253.360705   230.013725   158.191379

                             ****ORCA TERMINATED NORMALLY****
TOTAL RUN TIME: 0 days 0 hours 0 minutes 31 seconds 69 msec
