                         Program Version 5.0.3 -  RELEASE  -
|  1> !RHF def2-SVP TightSCF PAL16
|  2> *xyz 0 1
|  3> C 6.727133810158022 -1.2705952218202856 1.1653285364434365
|  4> N 5.289296993241355 -1.193545097169898 1.2088748296019503
|  5> C 4.635960318595676 -0.015928307884289512 0.8904205730242154
|  6> O 5.229182858836773 1.034619134718169 0.6577258177129953
|  7> C 3.105953200570935 -0.1426509819778373 0.8851221599262931
|  8> O 2.437355810809423 0.8210744855940864 0.07412579238676763
|  9> C 2.4364696771032803 0.4434922977258548 -1.242705797933485
| 10> C 3.273427572802996 1.1273790529295777 -2.1214808296246397
| 11> C 3.2829970422004435 0.7861830294172102 -3.475174915951023
| 12> C 2.4511889401862836 -0.23073969980780903 -3.949314226943929
| 13> C 1.5964832927755248 -0.9003658565272162 -3.0732274603438703
| 14> C 1.573622984651705 -0.5446714114154163 -1.726616656006681
| 15> O 0.7311763594284667 -1.2216636586145067 -0.8874925215947191
| 16> C -0.4649366803423405 -0.4562315904499241 -0.6506581910970601
| 17> C -1.0367487039592562 -0.8483311108127117 0.718702715108242
| 18> O -1.5951810697795066 -2.1711205146663395 0.6560084270073251
| 19> C -2.1400127263573556 0.11792100268656161 1.2016986597698875
| 20> N -3.3466295132882826 -0.016608451817359617 0.3646335939153943
| 21> C -4.546304457396873 0.6951917898360396 0.8524149690886403
| 22> C -4.308932088399878 2.208129457758398 0.9816168438454581
| 23> C -5.0416471605876225 0.12158853465082033 2.1900550071241582
| 24> C -5.642997244599994 0.4607499260721026 -0.20587541990533476
| 25> H 7.038772309927594 -1.3996729792249563 0.12474147749942845
| 26> H 7.047451379495312 -2.1332895012574653 1.7562896536873456
| 27> H 7.173154155973944 -0.3570667633477289 1.567467124412298
| 28> H 4.767347689138587 -2.05967907961846 1.1652957477650534
| 29> H 2.813087076397182 -1.1685379293299716 0.6355796562208246
| 30> H 2.778634388831017 0.03258250567290942 1.9176936111625416
| 31> H 3.9281156553052363 1.912330032783349 -1.7499237806877732
| 32> H 3.9454695387599754 1.3117778878151598 -4.15915426211672
| 33> H 2.466036468292983 -0.4949767273862121 -5.003269020832106
| 34> H 0.9502075751423605 -1.6933037084327915 -3.4377611814333413
| 35> H -1.1733669900577088 -0.7015202117865251 -1.4515630334614975
| 36> H -0.2647283404097491 0.6233523805745953 -0.6668697352088955
| 37> H -0.22825098925773635 -0.8823011234162013 1.4575305402150422
| 38> H -2.5298996316400246 -2.037354605514773 0.39789331258365057
| 39> H -2.3758553040224495 -0.15895097999312524 2.23418239881272
| 40> H -1.7625171741557948 1.1453729821448568 1.1970518751706156
| 41> H -3.134797434789124 0.31913185329353827 -0.5780244725305793
| 42> H -3.9238465901061677 2.632710027135633 0.04733739658156711
| 43> H -5.243342511299428 2.7311579503096532 1.219244187298367
| 44> H -3.5957997256102825 2.4445315185574374 1.778948076533725
| 45> H -4.3588434308261155 0.3488680575424036 3.015927446774385
| 46> H -6.017634122621741 0.5440065789275061 2.4578191974299983
| 47> H -5.159678343122855 -0.9678710543462989 2.1376173066553954
| 48> H -5.8503157566142105 -0.6085704091424307 -0.337248299533579
| 49> H -6.5823025599807234 0.9448975083282034 0.08545605423034394
| 50> H -5.353956549403627 0.8684989812856344 -1.1822793543056218
| 51> *
| 52>
| 53>                          ****END OF INPUT****

CARTESIAN COORDINATES (ANGSTROEM)
---------------------------------
  C      6.727134   -1.270595    1.165329
  N      5.289297   -1.193545    1.208875
  C      4.635960   -0.015928    0.890421
  O      5.229183    1.034619    0.657726
  C      3.105953   -0.142651    0.885122
  O      2.437356    0.821074    0.074126
  C      2.436470    0.443492   -1.242706
  C      3.273428    1.127379   -2.121481
  C      3.282997    0.786183   -3.475175
  C      2.451189   -0.230740   -3.949314
  C      1.596483   -0.900366   -3.073227
  C      1.573623   -0.544671   -1.726617
  O      0.731176   -1.221664   -0.887493
  C     -0.464937   -0.456232   -0.650658
  C     -1.036749   -0.848331    0.718703
  O     -1.595181   -2.171121    0.656008
  C     -2.140013    0.117921    1.201699
  N     -3.346630   -0.016608    0.364634
  C     -4.546304    0.695192    0.852415
  C     -4.308932    2.208129    0.981617
  C     -5.041647    0.121589    2.190055
  C     -5.642997    0.460750   -0.205875
  H      7.038772   -1.399673    0.124741
  H      7.047451   -2.133290    1.756290
  H      7.173154   -0.357067    1.567467
  H      4.767348   -2.059679    1.165296
  H      2.813087   -1.168538    0.635580
  H      2.778634    0.032583    1.917694
  H      3.928116    1.912330   -1.749924
  H      3.945470    1.311778   -4.159154
  H      2.466036   -0.494977   -5.003269
  H      0.950208   -1.693304   -3.437761
  H     -1.173367   -0.701520   -1.451563
  H     -0.264728    0.623352   -0.666870
  H     -0.228251   -0.882301    1.457531
  H     -2.529900   -2.037355    0.397893
  H     -2.375855   -0.158951    2.234182
  H     -1.762517    1.145373    1.197052
  H     -3.134797    0.319132   -0.578024
  H     -3.923847    2.632710    0.047337
  H     -5.243343    2.731158    1.219244
  H     -3.595800    2.444532    1.778948
  H     -4.358843    0.348868    3.015927
  H     -6.017634    0.544007    2.457819
  H     -5.159678   -0.967871    2.137617
  H     -5.850316   -0.608570   -0.337248
  H     -6.582303    0.944898    0.085456
  H     -5.353957    0.868499   -1.182279

 Total Charge           Charge          ....    0
 Multiplicity           Mult            ....    1
 Number of Electrons    NEL             ....  168
 Basis Dimension        Dim             ....  438

ORBITAL ENERGIES
----------------

  NO   OCC          E(Eh)            E(eV)
   0   2.0000     -20.578649      -559.9735
   1   2.0000     -20.568533      -559.6982
   2   2.0000     -20.528953      -558.6212
   3   2.0000     -20.516898      -558.2932
   4   2.0000     -15.586621      -424.1335
   5   2.0000     -15.558481      -423.3678
   6   2.0000     -11.355984      -309.0120
   7   2.0000     -11.305638      -307.6421
   8   2.0000     -11.294224      -307.3315
   9   2.0000     -11.292042      -307.2721
  10   2.0000     -11.287549      -307.1498
  11   2.0000     -11.281403      -306.9826
  12   2.0000     -11.273869      -306.7776
  13   2.0000     -11.266323      -306.5722
  14   2.0000     -11.262357      -306.4643
  15   2.0000     -11.240184      -305.8610
  16   2.0000     -11.238018      -305.8020
  17   2.0000     -11.237094      -305.7769
  18   2.0000     -11.235539      -305.7345
  19   2.0000     -11.227973      -305.5287
  20   2.0000     -11.227708      -305.5215
  21   2.0000     -11.227271      -305.5096
  22   2.0000      -1.405808       -38.2540
  23   2.0000      -1.380521       -37.5659
  24   2.0000      -1.355006       -36.8716
  25   2.0000      -1.320737       -35.9391
  26   2.0000      -1.215350       -33.0714
  27   2.0000      -1.210532       -32.9403
  28   2.0000      -1.136827       -30.9346
  29   2.0000      -1.061500       -28.8849
  30   2.0000      -1.021338       -27.7920
  31   2.0000      -1.018065       -27.7029
  32   2.0000      -0.987252       -26.8645
  33   2.0000      -0.972898       -26.4739
  34   2.0000      -0.935396       -25.4534
  35   2.0000      -0.933747       -25.4085
  36   2.0000      -0.914028       -24.8720
  37   2.0000      -0.901079       -24.5196
  38   2.0000      -0.835899       -22.7460
  39   2.0000      -0.811254       -22.0753
  40   2.0000      -0.803686       -21.8694
  41   2.0000      -0.781278       -21.2597
  42   2.0000      -0.757267       -20.6063
  43   2.0000      -0.730260       -19.8714
  44   2.0000      -0.710159       -19.3244
  45   2.0000      -0.696042       -18.9403
  46   2.0000      -0.680198       -18.5091
  47   2.0000      -0.670779       -18.2528
  48   2.0000      -0.663568       -18.0566
  49   2.0000      -0.660202       -17.9650
  50   2.0000      -0.647504       -17.6195
  51   2.0000      -0.640291       -17.4232
  52   2.0000      -0.636949       -17.3323
  53   2.0000      -0.627380       -17.0719
  54   2.0000      -0.623524       -16.9670
  55   2.0000      -0.617460       -16.8019
  56   2.0000      -0.606763       -16.5109
  57   2.0000      -0.601481       -16.3671
  58   2.0000      -0.595889       -16.2150
  59   2.0000      -0.588918       -16.0253
  60   2.0000      -0.574116       -15.6225
  61   2.0000      -0.556434       -15.1413
  62   2.0000      -0.552942       -15.0463
  63   2.0000      -0.549941       -14.9647
  64   2.0000      -0.546822       -14.8798
  65   2.0000      -0.537763       -14.6333
  66   2.0000      -0.533183       -14.5087
  67   2.0000      -0.527954       -14.3664
  68   2.0000      -0.522469       -14.2171
  69   2.0000      -0.520194       -14.1552
  70   2.0000      -0.506930       -13.7943
  71   2.0000      -0.502100       -13.6628
  72   2.0000      -0.494206       -13.4480
  73   2.0000      -0.489111       -13.3094
  74   2.0000      -0.477583       -12.9957
  75   2.0000      -0.475638       -12.9428
  76   2.0000      -0.464726       -12.6459
  77   2.0000      -0.449645       -12.2355
  78   2.0000      -0.427365       -11.6292
  79   2.0000      -0.418780       -11.3956
  80   2.0000      -0.392314       -10.6754
  81   2.0000      -0.385938       -10.5019
  82   2.0000      -0.336644        -9.1606
  83   2.0000      -0.326393        -8.8816
  84   0.0000       0.132104         3.5947
  85   0.0000       0.137277         3.7355
  86   0.0000       0.153763         4.1841
  87   0.0000       0.166638         4.5344
  88   0.0000       0.168763         4.5923

MULLIKEN ATOMIC CHARGES
-----------------------
   0 C :    0.157200
   1 N :   -0.483305
   2 C :    0.362090
   3 O :   -0.446367
   4 C :    0.304702
   5 O :   -0.553814
   6 C :    0.185175
   7 C :   -0.022171
   8 C :   -0.035141
   9 C :   -0.022755
  10 C :   -0.051044
  11 C :    0.196902
  12 O :   -0.579607
  13 C :    0.344992
  14 C :    0.195900
  15 O :   -0.485774
  16 C :    0.141826
  17 N :   -0.505314
  18 C :   -0.253532
  19 C :    0.046079
  20 C :    0.049653
  21 C :    0.054056
  22 H :    0.038724
  23 H :    0.033587
  24 H :    0.067967
  25 H :    0.159750
  26 H :    0.057800
  27 H :    0.067001
  28 H :    0.066812
  29 H :    0.043398
  30 H :    0.041052
  31 H :    0.041178
  32 H :    0.015304
  33 H :    0.034564
  34 H :    0.033619
  35 H :    0.206501
  36 H :    0.048579
  37 H :    0.028139
  38 H :    0.133949
  39 H :    0.022795
  40 H :    0.030810
  41 H :    0.035307
  42 H :    0.030678
  43 H :    0.031466
  44 H :    0.041707
  45 H :    0.039422
  46 H :    0.028940
  47 H :    0.021198
Sum of atomic charges:    0.0000000

LOEWDIN ATOMIC CHARGES
----------------------
   0 C :    0.069801
   1 N :   -0.105509
   2 C :    0.170937
   3 O :   -0.307371
   4 C :    0.114070
   5 O :   -0.187465
   6 C :    0.034751
   7 C :   -0.017231
   8 C :   -0.033624
   9 C :   -0.026988
  10 C :   -0.038629
  11 C :    0.044463
  12 O :   -0.205490
  13 C :    0.130715
  14 C :    0.100914
  15 O :   -0.207565
  16 C :    0.049057
  17 N :   -0.152454
  18 C :    0.003985
  19 C :   -0.034158
  20 C :   -0.024157
  21 C :   -0.023533
  22 H :    0.012783
  23 H :    0.015990
  24 H :    0.031189
  25 H :    0.076883
  26 H :    0.017156
  27 H :    0.035005
  28 H :    0.043373
  29 H :    0.027876
  30 H :    0.026823
  31 H :    0.033760
  32 H :    0.005811
  33 H :    0.011278
  34 H :    0.016990
  35 H :    0.071275
  36 H :    0.019480
  37 H :    0.000229
  38 H :    0.051565
  39 H :    0.012948
  40 H :    0.018985
  41 H :    0.014578
  42 H :    0.013026
  43 H :    0.020308
  44 H :    0.021403
  45 H :    0.019026
  46 H :    0.016531
  47 H :    0.011209

  Mayer bond orders larger than 0.100000
B(  0-C ,  1-N ) :   0.8961 B(  0-C , 22-H ) :   0.9941 B(  0-C , 23-H ) :   0.9926
B(  0-C , 24-H ) :   0.9850 B(  1-N ,  2-C ) :   1.1188 B(  1-N , 25-H ) :   0.9427
B(  2-C ,  3-O ) :   1.9433 B(  2-C ,  4-C ) :   0.9400 B(  4-C ,  5-O ) :   0.8885
B(  4-C , 26-H ) :   0.9851 B(  4-C , 27-H ) :   0.9563 B(  5-O ,  6-C ) :   0.9537
B(  6-C ,  7-C ) :   1.4273 B(  6-C , 11-C ) :   1.3608 B(  7-C ,  8-C ) :   1.3874
B(  7-C , 28-H ) :   0.9997 B(  8-C ,  9-C ) :   1.4101 B(  8-C , 29-H ) :   1.0004
B(  9-C , 10-C ) :   1.3893 B(  9-C , 30-H ) :   0.9994 B( 10-C , 11-C ) :   1.4252
B( 10-C , 31-H ) :   1.0063 B( 11-C , 12-O ) :   0.9581 B( 12-O , 13-C ) :   0.8465
B( 13-C , 14-C ) :   0.9883 B( 13-C , 32-H ) :   0.9575 B( 13-C , 33-H ) :   0.9697
B( 14-C , 15-O ) :   0.9078 B( 14-C , 16-C ) :   1.0394 B( 14-C , 34-H ) :   0.9659
B( 15-O , 35-H ) :   0.9517 B( 16-C , 17-N ) :   0.9111 B( 16-C , 36-H ) :   0.9702
B( 16-C , 37-H ) :   0.9644 B( 17-N , 18-C ) :   0.9118 B( 17-N , 38-H ) :   0.9462
B( 18-C , 19-C ) :   0.9914 B( 18-C , 20-C ) :   1.0062 B( 18-C , 21-C ) :   1.0188
B( 19-C , 39-H ) :   0.9805 B( 19-C , 40-H ) :   0.9810 B( 19-C , 41-H ) :   0.9817
B( 20-C , 42-H ) :   0.9812 B( 20-C , 43-H ) :   0.9830 B( 20-C , 44-H ) :   0.9813
B( 21-C , 45-H ) :   0.9839 B( 21-C , 46-H ) :   0.9846 B( 21-C , 47-H ) :   0.9817

FINAL SINGLE POINT ENERGY     -1028.577520644074

DIPOLE MOMENT
-------------
                                X             Y             Z
Electronic contribution:     27.91953      -3.06135      -8.79197
Nuclear contribution   :    -28.77497       2.80350       8.78013
                        -----------------------------------------
Total Dipole Moment    :     -0.85544      -0.25785      -0.01184
                        -----------------------------------------
Magnitude (a.u.)       :      0.89354
Magnitude (Debye)      :      2.27119

Rotational constants in cm-1:     0.015281     0.003735     0.003385
Rotational constants in MHz :   458.120808   111.970301   101.472393

                             ****ORCA TERMINATED NORMALLY****
TOTAL RUN TIME: 0 days 0 hours 0 minutes 27 seconds 162 msec
