                         Program Version 5.0.3 -  RELEASE  -
|  1> !RHF def2-SVP TightSCF PAL16
|  2> *xyz 0 1
|  3> C -2.40258298180355 1.9011594803894774 1.7595063052950388
|  4> C -1.2094327023997862 1.3303908212426796 0.9763934162864375
|  5> C 0.08459045202357039 1.5158714452909914 1.7908366978924237
|  6> C 1.3165180952598907 1.6161226666674384 0.9090263209196333
|  7> O 2.0243492371769674 2.617710515047553 0.9501039331408613
|  8> N 1.5427194366998929 0.48481978751956023 0.15340928441567542
|  9> C 2.6079308806680817 0.23200340963288527 -0.7423882367037056
| 10> C 3.5739373788747177 1.1908466649261935 -1.0655439320710505
| 11> C 4.598507238108059 0.8974194902667175 -1.9727958072893
| 12> C 4.66641383786392 -0.36024117646819886 -2.5638511455214035
| 13> Cl 5.92488941142931 -0.7142094027249911 -3.680846893489078
| 14> C 3.7235220751103455 -1.3332529992428792 -2.2536726132019784
| 15> C 2.7027312442673255 -1.036731577378577 -1.3470742446313368
| 16> Cl 1.5811830319749252 -2.297161507323985 -0.9669888953485493
| 17> N -1.3681626726466012 -0.083510526524153 0.5358055881474023
| 18> C -1.8448409998386526 -0.9921524409686974 1.5934738964191766
| 19> C -1.8648504930602863 -2.442922287329374 1.1110295122887395
| 20> C -2.716374407943528 -2.596410357920249 -0.14044201232512646
| 21> C -2.294415927260058 -1.5935280818311133 -1.2039952466395099
| 22> C -2.244479391768915 -0.1711804351228613 -0.6478921891204997
| 23> H -2.5061257810134783 1.4339483843134981 2.7426898873881833
| 24> H -2.2667375534526277 2.9772505334972967 1.9253292385746341
| 25> H -3.3440831157096134 1.7788046325907578 1.2139621339688493
| 26> H -1.0991078117794404 1.9516853958988456 0.07524502257212633
| 27> H 0.24358993654447866 0.7206345644678465 2.527669902384303
| 28> H 0.03217781787352865 2.45199245580593 2.362128377777342
| 29> H 0.8417745539970954 -0.25539441480517316 0.24042212311873468
| 30> H 3.5543023705531933 2.1890776473615343 -0.638897336275474
| 31> H 5.334197795437478 1.6608763655140346 -2.2142599345864444
| 32> H 3.782338180956955 -2.3174640159394393 -2.7111241015218357
| 33> H -2.8531092061175993 -0.7199304027404685 1.930275086785882
| 34> H -1.185780207036514 -0.9440232518036009 2.4672524812206484
| 35> H -2.2571128007144123 -3.0902409262373243 1.9033725081220179
| 36> H -0.8413451702317144 -2.778446928172329 0.9055692820865993
| 37> H -3.7709322286284985 -2.4338562925557006 0.11129606698438163
| 38> H -2.6346410752246707 -3.617125056993102 -0.5329276246549826
| 39> H -1.311385650919789 -1.8698093751875677 -1.6000870718173879
| 40> H -2.993378065189714 -1.6373420433804238 -2.0461541188396435
| 41> H -3.2632586339324483 0.1593109676561995 -0.4139198854998225
| 42> H -1.8635360981505897 0.48232694165857726 -1.4419357762517322
| 43> *
| 44>
| 45>                          ****END OF INPUT****

CARTESIAN COORDINATES (ANGSTROEM)
---------------------------------
  C     -2.402583    1.901159    1.759506
  C     -1.209433    1.330391    0.976393
  C      0.084590    1.515871    1.790837
  C      1.316518    1.616123    0.909026
  O      2.024349    2.617711    0.950104
  N      1.542719    0.484820    0.153409
  C      2.607931    0.232003   -0.742388
  C      3.573937    1.190847   -1.065544
  C      4.598507    0.897419   -1.972796
  C      4.666414   -0.360241   -2.563851
  Cl     5.924889   -0.714209   -3.680847
  C      3.723522   -1.333253   -2.253673
  C      2.702731   -1.036732   -1.347074
  Cl     1.581183   -2.297162   -0.966989
  N     -1.368163   -0.083511    0.535806
  C     -1.844841   -0.992152    1.593474
  C     -1.864850   -2.442922    1.111030
  C     -2.716374   -2.596410   -0.140442
  C     -2.294416   -1.593528   -1.203995
  C     -2.244479   -0.171180   -0.647892
  H     -2.506126    1.433948    2.742690
  H     -2.266738    2.977251    1.925329
  H     -3.344083    1.778805    1.213962
  H     -1.099108    1.951685    0.075245
  H      0.243590    0.720635    2.527670
  H      0.032178    2.451992    2.362128
  H      0.841775   -0.255394    0.240422
  H      3.554302    2.189078   -0.638897
  H      5.334198    1.660876   -2.214260
  H      3.782338   -2.317464   -2.711124
  H     -2.853109   -0.719930    1.930275
  H     -1.185780   -0.944023    2.467252
  H     -2.257113   -3.090241    1.903373
  H     -0.841345   -2.778447    0.905569
  H     -3.770932   -2.433856    0.111296
  H     -2.634641   -3.617125   -0.532928
  H     -1.311386   -1.869809   -1.600087
  H     -2.993378   -1.637342   -2.046154
  H     -3.263259    0.159311   -0.413920
  H     -1.863536    0.482327   -1.441936

 Total Charge           Charge          ....    0
 Multiplicity           Mult            ....    1
 Number of Electrons    NEL             ....  166
 Basis Dimension        Dim             ....  388

ORBITAL ENERGIES
----------------

  NO   OCC          E(Eh)            E(eV)
   0   2.0000    -104.814540     -2852.1486
   1   2.0000    -104.795831     -2851.6395
   2   2.0000     -20.523991      -558.4862
   3   2.0000     -15.602282      -424.5597
   4   2.0000     -15.565121      -423.5485
   5   2.0000     -11.362790      -309.1972
   6   2.0000     -11.313298      -307.8505
   7   2.0000     -11.311706      -307.8072
   8   2.0000     -11.301738      -307.5359
   9   2.0000     -11.280801      -306.9662
  10   2.0000     -11.267720      -306.6102
  11   2.0000     -11.263760      -306.5025
  12   2.0000     -11.261160      -306.4318
  13   2.0000     -11.258912      -306.3706
  14   2.0000     -11.250150      -306.1322
  15   2.0000     -11.243637      -305.9549
  16   2.0000     -11.234956      -305.7187
  17   2.0000     -11.229489      -305.5699
  18   2.0000     -11.227139      -305.5060
  19   2.0000     -11.225612      -305.4644
  20   2.0000     -10.577743      -287.8350
  21   2.0000     -10.559706      -287.3442
  22   2.0000      -8.052832      -219.1287
  23   2.0000      -8.049388      -219.0350
  24   2.0000      -8.049199      -219.0299
  25   2.0000      -8.034859      -218.6396
  26   2.0000      -8.031235      -218.5410
  27   2.0000      -8.031147      -218.5386
  28   2.0000      -1.369021       -37.2529
  29   2.0000      -1.252869       -34.0923
  30   2.0000      -1.233762       -33.5724
  31   2.0000      -1.192280       -32.4436
  32   2.0000      -1.159171       -31.5427
  33   2.0000      -1.100957       -29.9586
  34   2.0000      -1.088762       -29.6267
  35   2.0000      -1.038692       -28.2642
  36   2.0000      -1.016977       -27.6734
  37   2.0000      -1.010768       -27.5044
  38   2.0000      -0.992715       -27.0131
  39   2.0000      -0.952369       -25.9153
  40   2.0000      -0.886826       -24.1318
  41   2.0000      -0.862590       -23.4723
  42   2.0000      -0.852427       -23.1957
  43   2.0000      -0.826378       -22.4869
  44   2.0000      -0.800915       -21.7940
  45   2.0000      -0.779067       -21.1995
  46   2.0000      -0.756713       -20.5912
  47   2.0000      -0.735176       -20.0051
  48   2.0000      -0.694345       -18.8941
  49   2.0000      -0.681004       -18.5311
  50   2.0000      -0.663175       -18.0459
  51   2.0000      -0.653205       -17.7746
  52   2.0000      -0.641201       -17.4480
  53   2.0000      -0.632258       -17.2046
  54   2.0000      -0.626228       -17.0405
  55   2.0000      -0.619321       -16.8526
  56   2.0000      -0.610927       -16.6242
  57   2.0000      -0.608155       -16.5487
  58   2.0000      -0.599015       -16.3000
  59   2.0000      -0.594444       -16.1757
  60   2.0000      -0.583799       -15.8860
  61   2.0000      -0.566471       -15.4145
  62   2.0000      -0.555734       -15.1223
  63   2.0000      -0.550848       -14.9893
  64   2.0000      -0.544249       -14.8098
  65   2.0000      -0.542345       -14.7580
  66   2.0000      -0.533392       -14.5143
  67   2.0000      -0.525875       -14.3098
  68   2.0000      -0.521674       -14.1955
  69   2.0000      -0.512471       -13.9451
  70   2.0000      -0.505868       -13.7654
  71   2.0000      -0.490351       -13.3431
  72   2.0000      -0.479995       -13.0613
  73   2.0000      -0.470231       -12.7956
  74   2.0000      -0.465641       -12.6707
  75   2.0000      -0.457270       -12.4430
  76   2.0000      -0.452863       -12.3230
  77   2.0000      -0.451008       -12.2725
  78   2.0000      -0.429199       -11.6791
  79   2.0000      -0.422164       -11.4877
  80   2.0000      -0.373324       -10.1587
  81   2.0000      -0.351141        -9.5550
  82   2.0000      -0.313261        -8.5243
  83   0.0000       0.107545         2.9265
  84   0.0000       0.112876         3.0715
  85   0.0000       0.158851         4.3226
  86   0.0000       0.174186         4.7398
  87   0.0000       0.181907         4.9499

MULLIKEN ATOMIC CHARGES
-----------------------
   0 C :    0.010545
   1 C :   -0.032467
   2 C :    0.048741
   3 C :    0.397549
   4 O :   -0.439397
   5 N :   -0.423939
   6 C :    0.194232
   7 C :   -0.081215
   8 C :    0.017787
   9 C :    0.023435
  10 Cl:   -0.134806
  11 C :    0.029801
  12 C :    0.012732
  13 Cl:   -0.122921
  14 N :   -0.683832
  15 C :    0.151543
  16 C :   -0.020449
  17 C :   -0.069826
  18 C :   -0.028561
  19 C :    0.165164
  20 H :    0.034434
  21 H :    0.043139
  22 H :    0.038933
  23 H :    0.052160
  24 H :    0.058904
  25 H :    0.060580
  26 H :    0.207235
  27 H :    0.093148
  28 H :    0.054629
  29 H :    0.052000
  30 H :    0.017213
  31 H :    0.034611
  32 H :    0.033524
  33 H :    0.032084
  34 H :    0.021803
  35 H :    0.037528
  36 H :    0.036159
  37 H :    0.031919
  38 H :    0.009650
  39 H :    0.036232
Sum of atomic charges:    0.0000000

LOEWDIN ATOMIC CHARGES
----------------------
   0 C :   -0.038240
   1 C :    0.050285
   2 C :   -0.032351
   3 C :    0.191053
   4 O :   -0.300484
   5 N :   -0.063426
   6 C :    0.046669
   7 C :   -0.025055
   8 C :   -0.020773
   9 C :   -0.132605
  10 Cl:    0.095810
  11 C :   -0.039962
  12 C :   -0.134867
  13 Cl:    0.120662
  14 N :   -0.199386
  15 C :    0.060921
  16 C :   -0.021949
  17 C :   -0.023398
  18 C :   -0.024530
  19 C :    0.064852
  20 H :    0.016867
  21 H :    0.023362
  22 H :    0.017467
  23 H :    0.018418
  24 H :    0.029299
  25 H :    0.036773
  26 H :    0.069648
  27 H :    0.047039
  28 H :    0.037064
  29 H :    0.038607
  30 H :   -0.004415
  31 H :    0.009400
  32 H :    0.017207
  33 H :    0.010757
  34 H :    0.009283
  35 H :    0.016480
  36 H :    0.009778
  37 H :    0.016830
  38 H :   -0.007241
  39 H :    0.014151

  Mayer bond orders larger than 0.100000
B(  0-C ,  1-C ) :   1.0347 B(  0-C , 20-H ) :   0.9760 B(  0-C , 21-H ) :   0.9796
B(  0-C , 22-H ) :   0.9857 B(  1-C ,  2-C ) :   0.9729 B(  1-C , 14-N ) :   0.9049
B(  1-C , 23-H ) :   0.9747 B(  2-C ,  3-C ) :   0.9921 B(  2-C , 24-H ) :   0.9549
B(  2-C , 25-H ) :   0.9720 B(  3-C ,  4-O ) :   1.9458 B(  3-C ,  5-N ) :   1.0995
B(  5-N ,  6-C ) :   1.0271 B(  5-N , 26-H ) :   0.8812 B(  6-C ,  7-C ) :   1.3988
B(  6-C , 12-C ) :   1.3930 B(  7-C ,  8-C ) :   1.4123 B(  7-C , 27-H ) :   0.9949
B(  8-C ,  9-C ) :   1.3991 B(  8-C , 28-H ) :   1.0035 B(  9-C , 10-Cl) :   0.9389
B(  9-C , 11-C ) :   1.4062 B( 11-C , 12-C ) :   1.4253 B( 11-C , 29-H ) :   1.0058
B( 12-C , 13-Cl) :   0.9567 B( 14-N , 15-C ) :   0.9005 B( 14-N , 19-C ) :   0.9039
B( 15-C , 16-C ) :   1.0401 B( 15-C , 30-H ) :   0.9624 B( 15-C , 31-H ) :   0.9768
B( 16-C , 17-C ) :   1.0312 B( 16-C , 32-H ) :   0.9759 B( 16-C , 33-H ) :   0.9672
B( 17-C , 18-C ) :   1.0320 B( 17-C , 34-H ) :   0.9729 B( 17-C , 35-H ) :   0.9783
B( 18-C , 19-C ) :   1.0410 B( 18-C , 36-H ) :   0.9648 B( 18-C , 37-H ) :   0.9747
B( 19-C , 38-H ) :   0.9651 B( 19-C , 39-H ) :   0.9771

FINAL SINGLE POINT ENERGY     -1681.585704558817

DIPOLE MOMENT
-------------
                                X             Y             Z
Electronic contribution:     45.41259      -5.37414     -21.35855
Nuclear contribution   :    -47.07173       4.82031      21.76936
                        -----------------------------------------
Total Dipole Moment    :     -1.65914      -0.55383       0.41081
                        -----------------------------------------
Magnitude (a.u.)       :      1.79673
Magnitude (Debye)      :      4.56691

Rotational constants in cm-1:     0.015911     0.005159     0.004182
Rotational constants in MHz :   476.990298   154.648404   125.359279

                             ****ORCA TERMINATED NORMALLY****
TOTAL RUN TIME: 0 days 0 hours 0 minutes 24 seconds 843 msec
