                         Program Version 5.0.3 -  RELEASE  -
|  1> !RHF def2-SVP TightSCF PAL16
|  2> *xyz 0 1
|  3> C -5.092803280367678 -0.5110019492631376 -0.3242665694582217
|  4> C -3.5982682429606445 -0.47274249443085337 -0.6206151523796501
|  5> C -2.823870458055431 0.4217368065347481 0.36659966371520525
|  6> C -3.1843923216308117 1.886243777280968 0.17670097562070555
|  7> O -3.3892425475701096 2.4637173008446793 -0.8794866387757824
|  8> O -3.2537940116413693 2.5624312882702576 1.3429811926124329
|  9> C -1.3220385915089026 0.21260737990467504 0.24855493489126923
| 10> C -0.5900290016080608 -0.24929156531279223 1.3499112258548345
| 11> C 0.7920113351558884 -0.4458902891516239 1.2564109796451923
| 12> C 1.4836554120943335 -0.18720017543096298 0.0633286538331049
| 13> C 2.937966166888345 -0.3954036614934772 -0.03273382662372105
| 14> C 3.489377100273095 -1.1965777007716822 -1.0466778351690853
| 15> C 4.8697407291439525 -1.3954967565032605 -1.1383520369359144
| 16> C 5.723382716175029 -0.7946373768212112 -0.21683539483388475
| 17> C 5.198168358133493 0.003983182975674892 0.7957319794196593
| 18> C 3.8174438583436316 0.20085765977161588 0.8865208801821789
| 19> C 0.7444858356560862 0.27785809939341105 -1.0346868764946628
| 20> C -0.6373222223559986 0.47655139190826706 -0.9455056193435707
| 21> H -5.2822085646381 -0.8762862592618252 0.6900958566761367
| 22> H -5.597639276168108 -1.1836327697618219 -1.0250266932224723
| 23> H -5.546591540465768 0.47958900391521203 -0.4245539882263495
| 24> H -3.453775358772489 -0.134132336183113 -1.6539801977913817
| 25> H -3.212878587693491 -1.4991295621733804 -0.5688064814983098
| 26> H -3.1438187736390875 0.1383203849238657 1.378987567248448
| 27> H -3.4484660962745477 3.483262074190993 1.0694993322116682
| 28> H -1.0864773993888357 -0.4631529297185707 2.29420113074014
| 29> H 1.3287535656419163 -0.8171852357769318 2.1273993645439777
| 30> H 2.839344844880961 -1.6843123056377975 -1.7703862732986868
| 31> H 5.2755343407321735 -2.021695234945581 -1.928511277370634
| 32> H 6.796848616973274 -0.9483097437664691 -0.2879734046029465
| 33> H 5.861408081058206 0.477538413261482 1.5147470384289998
| 34> H 3.4288657861521927 0.8382680218055065 1.6782507022110853
| 35> H 1.2464960544501504 0.5047804081067889 -1.9733955632090288
| 36> H -1.1698665270143802 0.8483331533164806 -1.8194990673334854
| 37> *
| 38>
| 39>                          ****END OF INPUT****

CARTESIAN COORDINATES (ANGSTROEM)
---------------------------------
  C     -5.092803   -0.511002   -0.324267
  C     -3.598268   -0.472742   -0.620615
  C     -2.823870    0.421737    0.366600
  C     -3.184392    1.886244    0.176701
  O     -3.389243    2.463717   -0.879487
  O     -3.253794    2.562431    1.342981
  C     -1.322039    0.212607    0.248555
  C     -0.590029   -0.249292    1.349911
  C      0.792011   -0.445890    1.256411
  C      1.483655   -0.187200    0.063329
  C      2.937966   -0.395404   -0.032734
  C      3.489377   -1.196578   -1.046678
  C      4.869741   -1.395497   -1.138352
  C      5.723383   -0.794637   -0.216835
  C      5.198168    0.003983    0.795732
  C      3.817444    0.200858    0.886521
  C      0.744486    0.277858   -1.034687
  C     -0.637322    0.476551   -0.945506
  H     -5.282209   -0.876286    0.690096
  H     -5.597639   -1.183633   -1.025027
  H     -5.546592    0.479589   -0.424554
  H     -3.453775   -0.134132   -1.653980
  H     -3.212879   -1.499130   -0.568806
  H     -3.143819    0.138320    1.378988
  H     -3.448466    3.483262    1.069499
  H     -1.086477   -0.463153    2.294201
  H      1.328754   -0.817185    2.127399
  H      2.839345   -1.684312   -1.770386
  H      5.275534   -2.021695   -1.928511
  H      6.796849   -0.948310   -0.287973
  H      5.861408    0.477538    1.514747
  H      3.428866    0.838268    1.678251
  H      1.246496    0.504780   -1.973396
  H     -1.169867    0.848333   -1.819499

 Total Charge           Charge          ....    0
 Multiplicity           Mult            ....    1
 Number of Electrons    NEL             ....  128
 Basis Dimension        Dim             ....  332

ORBITAL ENERGIES
----------------

  NO   OCC          E(Eh)            E(eV)
   0   2.0000     -20.608287      -560.7800
   1   2.0000     -20.545129      -559.0614
   2   2.0000     -11.392171      -309.9967
   3   2.0000     -11.260804      -306.4220
   4   2.0000     -11.255061      -306.2658
   5   2.0000     -11.250217      -306.1340
   6   2.0000     -11.249258      -306.1079
   7   2.0000     -11.245922      -306.0171
   8   2.0000     -11.244137      -305.9685
   9   2.0000     -11.243863      -305.9611
  10   2.0000     -11.243010      -305.9378
  11   2.0000     -11.242121      -305.9137
  12   2.0000     -11.242099      -305.9131
  13   2.0000     -11.241135      -305.8868
  14   2.0000     -11.240900      -305.8804
  15   2.0000     -11.239283      -305.8364
  16   2.0000     -11.236120      -305.7504
  17   2.0000     -11.225354      -305.4574
  18   2.0000      -1.449294       -39.4373
  19   2.0000      -1.335387       -36.3377
  20   2.0000      -1.165352       -31.7108
  21   2.0000      -1.141043       -31.0493
  22   2.0000      -1.093902       -29.7666
  23   2.0000      -1.040565       -28.3152
  24   2.0000      -1.010339       -27.4927
  25   2.0000      -1.003405       -27.3040
  26   2.0000      -0.991536       -26.9811
  27   2.0000      -0.947419       -25.7806
  28   2.0000      -0.856488       -23.3062
  29   2.0000      -0.842639       -22.9294
  30   2.0000      -0.836445       -22.7608
  31   2.0000      -0.813726       -22.1426
  32   2.0000      -0.791802       -21.5460
  33   2.0000      -0.766974       -20.8704
  34   2.0000      -0.718780       -19.5590
  35   2.0000      -0.702982       -19.1291
  36   2.0000      -0.697213       -18.9721
  37   2.0000      -0.679109       -18.4795
  38   2.0000      -0.654374       -17.8064
  39   2.0000      -0.644456       -17.5365
  40   2.0000      -0.626953       -17.0602
  41   2.0000      -0.621996       -16.9254
  42   2.0000      -0.618609       -16.8332
  43   2.0000      -0.612215       -16.6592
  44   2.0000      -0.591855       -16.1052
  45   2.0000      -0.591368       -16.0919
  46   2.0000      -0.586944       -15.9716
  47   2.0000      -0.577991       -15.7279
  48   2.0000      -0.557682       -15.1753
  49   2.0000      -0.546642       -14.8749
  50   2.0000      -0.517763       -14.0890
  51   2.0000      -0.510033       -13.8787
  52   2.0000      -0.504947       -13.7403
  53   2.0000      -0.497581       -13.5399
  54   2.0000      -0.493181       -13.4201
  55   2.0000      -0.492867       -13.4116
  56   2.0000      -0.486419       -13.2361
  57   2.0000      -0.480958       -13.0875
  58   2.0000      -0.473559       -12.8862
  59   2.0000      -0.450085       -12.2474
  60   2.0000      -0.362344        -9.8599
  61   2.0000      -0.343303        -9.3417
  62   2.0000      -0.338991        -9.2244
  63   2.0000      -0.310534        -8.4501
  64   0.0000       0.099268         2.7012
  65   0.0000       0.118286         3.2187
  66   0.0000       0.129771         3.5312
  67   0.0000       0.150699         4.1007
  68   0.0000       0.176081         4.7914

MULLIKEN ATOMIC CHARGES
-----------------------
   0 C :   -0.030609
   1 C :   -0.042051
   2 C :   -0.104937
   3 C :    0.512765
   4 O :   -0.422375
   5 O :   -0.352805
   6 C :   -0.133536
   7 C :   -0.014745
   8 C :   -0.014225
   9 C :   -0.043737
  10 C :   -0.049830
  11 C :   -0.019045
  12 C :   -0.036578
  13 C :   -0.037100
  14 C :   -0.036608
  15 C :   -0.018954
  16 C :   -0.011750
  17 C :   -0.007784
  18 H :    0.026050
  19 H :    0.040181
  20 H :    0.042267
  21 H :    0.057869
  22 H :    0.043635
  23 H :    0.059304
  24 H :    0.223567
  25 H :    0.034620
  26 H :    0.038042
  27 H :    0.037870
  28 H :    0.041857
  29 H :    0.041696
  30 H :    0.041809
  31 H :    0.038041
  32 H :    0.039948
  33 H :    0.057149
Sum of atomic charges:   -0.0000000

LOEWDIN ATOMIC CHARGES
----------------------
   0 C :   -0.036667
   1 C :   -0.008357
   2 C :   -0.037297
   3 C :    0.223150
   4 O :   -0.287837
   5 O :   -0.106135
   6 C :   -0.027455
   7 C :   -0.019858
   8 C :   -0.014437
   9 C :   -0.023140
  10 C :   -0.024053
  11 C :   -0.017900
  12 C :   -0.022811
  13 C :   -0.027695
  14 C :   -0.022839
  15 C :   -0.017834
  16 C :   -0.011830
  17 C :   -0.013292
  18 H :    0.013526
  19 H :    0.021452
  20 H :    0.018238
  21 H :    0.023561
  22 H :    0.020812
  23 H :    0.032654
  24 H :    0.113636
  25 H :    0.026913
  26 H :    0.028140
  27 H :    0.026854
  28 H :    0.027543
  29 H :    0.026447
  30 H :    0.027520
  31 H :    0.026924
  32 H :    0.029092
  33 H :    0.032973

  Mayer bond orders larger than 0.100000
B(  0-C ,  1-C ) :   1.0401 B(  0-C , 18-H ) :   0.9832 B(  0-C , 19-H ) :   0.9873
B(  0-C , 20-H ) :   0.9836 B(  1-C ,  2-C ) :   1.0165 B(  1-C , 21-H ) :   0.9597
B(  1-C , 22-H ) :   0.9790 B(  2-C ,  3-C ) :   0.9020 B(  2-C ,  6-C ) :   1.0042
B(  2-C , 23-H ) :   0.9616 B(  3-C ,  4-O ) :   1.9682 B(  3-C ,  5-O ) :   1.1490
B(  5-O , 24-H ) :   0.9434 B(  6-C ,  7-C ) :   1.4320 B(  6-C , 17-C ) :   1.3911
B(  7-C ,  8-C ) :   1.4316 B(  7-C , 25-H ) :   1.0007 B(  8-C ,  9-C ) :   1.4195
B(  8-C , 26-H ) :   1.0012 B(  9-C , 10-C ) :   0.9846 B(  9-C , 16-C ) :   1.4080
B( 10-C , 11-C ) :   1.4173 B( 10-C , 15-C ) :   1.4174 B( 11-C , 12-C ) :   1.4238
B( 11-C , 27-H ) :   1.0016 B( 12-C , 13-C ) :   1.4112 B( 12-C , 28-H ) :   0.9998
B( 13-C , 14-C ) :   1.4112 B( 13-C , 29-H ) :   1.0002 B( 14-C , 15-C ) :   1.4238
B( 14-C , 30-H ) :   0.9998 B( 15-C , 31-H ) :   1.0016 B( 16-C , 17-C ) :   1.4423
B( 16-C , 32-H ) :   1.0028 B( 17-C , 33-H ) :   0.9980

FINAL SINGLE POINT ENERGY      -764.404300981923

DIPOLE MOMENT
-------------
                                X             Y             Z
Electronic contribution:      7.03499       5.42297       1.38855
Nuclear contribution   :     -6.84191      -5.82935      -0.90660
                        -----------------------------------------
Total Dipole Moment    :      0.19308      -0.40638       0.48195
                        -----------------------------------------
Magnitude (a.u.)       :      0.65931
Magnitude (Debye)      :      1.67584

Rotational constants in cm-1:     0.040337     0.005498     0.005314
Rotational constants in MHz :  1209.282202   164.840300   159.296870

                             ****ORCA TERMINATED NORMALLY****
TOTAL RUN TIME: 0 days 0 hours 0 minutes 14 seconds 774 msec
