                         Program Version 5.0.3 -  RELEASE  -
|  1> !RHF def2-SVP TightSCF PAL16
|  2> *xyz 0 1
|  3> C -1.1036271048403326 0.08310524971667553 3.3217911457225062
|  4> C -0.6928367542187787 0.4050066601397822 1.8804893824025588
|  5> C -1.8366883268858019 0.020046002126105106 0.9200422559372065
|  6> C -1.6702962991599344 0.6294687330618406 -0.48166648546555263
|  7> N -2.7587407918564333 0.3789995889966984 -1.4423374667079347
|  8> C -2.8957801598747848 -1.0355163694426912 -1.7772305471448064
|  9> C -4.035286174816814 0.9507988954150884 -1.029037178524735
| 10> N 0.5227867998361129 -0.36674492397404795 1.605945800572844
| 11> C 1.479211747582775 0.15271239133234274 0.6977634955702324
| 12> C 1.9484310379880942 1.4686028411603798 0.8077305882334731
| 13> C 2.9046007581788227 1.9462453049978394 -0.07783346715139762
| 14> O 3.3196724974147327 3.2368220488230763 0.06999207661810647
| 15> C 3.4209365715827444 1.1290629951153317 -1.0742046946092032
| 16> C 2.9769576787773007 -0.19873351004326012 -1.1834144957262664
| 17> C 3.4789070127302852 -1.0548358771538848 -2.173425940822859
| 18> C 3.0164385414411163 -2.361602450743369 -2.2600734814418293
| 19> C 2.0613488007074596 -2.771946728135079 -1.3515363538434177
| 20> N 1.551074675936011 -1.9788548812177442 -0.385147003759055
| 21> C 2.003738529337879 -0.7053911792666596 -0.2923894080763437
| 22> H -1.3189561007583386 -0.98417727638114 3.44706890266937
| 23> H -1.996436610382343 0.6478357351666776 3.610061421005911
| 24> H -0.30091611402977175 0.34348174958642813 4.020788201659713
| 25> H -0.5204092957994125 1.4857323724316809 1.8302121121303994
| 26> H -2.779403175267151 0.3780549769322291 1.3504311729012382
| 27> H -1.910895068137787 -1.0720006253090524 0.8528921716578448
| 28> H -1.5414213133305208 1.7154505657049668 -0.386565182661896
| 29> H -0.7425402419967204 0.2686315626710307 -0.9368815044519727
| 30> H -3.2576890930973503 -1.6351457256054993 -0.9352568673703416
| 31> H -3.5994896143448427 -1.162189491992044 -2.607701887173038
| 32> H -1.9390748529785329 -1.450708875876595 -2.113252442267873
| 33> H -4.7608533717115975 0.8885227467846905 -1.8479804676308549
| 34> H -3.9259407102087844 2.0142594307616912 -0.7896226136210689
| 35> H -4.466239882871326 0.4416659964810887 -0.1605087314793739
| 36> H 0.33063717295741185 -1.334566486930484 1.3211214123936195
| 37> H 1.5915142202196744 2.120311921126553 1.5986285063556993
| 38> H 3.9936504918848965 3.4320758520977255 -0.6013734399266958
| 39> H 4.168335197014923 1.508854711166559 -1.764167348811199
| 40> H 4.229060558049786 -0.7091469043106007 -2.880007888455339
| 41> H 3.390915677974398 -3.0409791726857485 -3.0170908322562253
| 42> H 1.665303086956518 -3.783207852728699 -1.3750500183222465
| 43> *
| 44>
| 45>                          ****END OF INPUT****

CARTESIAN COORDINATES (ANGSTROEM)
---------------------------------
  C     -1.103627    0.083105    3.321791
  C     -0.692837    0.405007    1.880489
  C     -1.836688    0.020046    0.920042
  C     -1.670296    0.629469   -0.481666
  N     -2.758741    0.379000   -1.442337
  C     -2.895780   -1.035516   -1.777231
  C     -4.035286    0.950799   -1.029037
  N      0.522787   -0.366745    1.605946
  C      1.479212    0.152712    0.697763
  C      1.948431    1.468603    0.807731
  C      2.904601    1.946245   -0.077833
  O      3.319672    3.236822    0.069992
  C      3.420937    1.129063   -1.074205
  C      2.976958   -0.198734   -1.183414
  C      3.478907   -1.054836   -2.173426
  C      3.016439   -2.361602   -2.260073
  C      2.061349   -2.771947   -1.351536
  N      1.551075   -1.978855   -0.385147
  C      2.003739   -0.705391   -0.292389
  H     -1.318956   -0.984177    3.447069
  H     -1.996437    0.647836    3.610061
  H     -0.300916    0.343482    4.020788
  H     -0.520409    1.485732    1.830212
  H     -2.779403    0.378055    1.350431
  H     -1.910895   -1.072001    0.852892
  H     -1.541421    1.715451   -0.386565
  H     -0.742540    0.268632   -0.936882
  H     -3.257689   -1.635146   -0.935257
  H     -3.599490   -1.162189   -2.607702
  H     -1.939075   -1.450709   -2.113252
  H     -4.760853    0.888523   -1.847980
  H     -3.925941    2.014259   -0.789623
  H     -4.466240    0.441666   -0.160509
  H      0.330637   -1.334566    1.321121
  H      1.591514    2.120312    1.598629
  H      3.993650    3.432076   -0.601373
  H      4.168335    1.508855   -1.764167
  H      4.229061   -0.709147   -2.880008
  H      3.390916   -3.040979   -3.017091
  H      1.665303   -3.783208   -1.375050

 Total Charge           Charge          ....    0
 Multiplicity           Mult            ....    1
 Number of Electrons    NEL             ....  140
 Basis Dimension        Dim             ....  371

ORBITAL ENERGIES
----------------

  NO   OCC          E(Eh)            E(eV)
   0   2.0000     -20.584660      -560.1371
   1   2.0000     -15.573084      -423.7652
   2   2.0000     -15.552784      -423.2128
   3   2.0000     -15.534374      -422.7118
   4   2.0000     -11.309688      -307.7523
   5   2.0000     -11.287785      -307.1562
   6   2.0000     -11.280583      -306.9603
   7   2.0000     -11.269776      -306.6662
   8   2.0000     -11.263592      -306.4979
   9   2.0000     -11.262332      -306.4636
  10   2.0000     -11.253873      -306.2335
  11   2.0000     -11.250214      -306.1339
  12   2.0000     -11.242938      -305.9359
  13   2.0000     -11.242792      -305.9319
  14   2.0000     -11.241655      -305.9010
  15   2.0000     -11.228469      -305.5422
  16   2.0000     -11.226124      -305.4784
  17   2.0000     -11.217639      -305.2475
  18   2.0000     -11.214801      -305.1702
  19   2.0000      -1.388219       -37.7753
  20   2.0000      -1.259548       -34.2740
  21   2.0000      -1.212065       -32.9820
  22   2.0000      -1.199711       -32.6458
  23   2.0000      -1.127381       -30.6776
  24   2.0000      -1.085235       -29.5308
  25   2.0000      -1.035885       -28.1879
  26   2.0000      -1.017633       -27.6912
  27   2.0000      -0.979203       -26.6455
  28   2.0000      -0.956224       -26.0202
  29   2.0000      -0.934219       -25.4214
  30   2.0000      -0.886819       -24.1316
  31   2.0000      -0.878071       -23.8935
  32   2.0000      -0.855737       -23.2858
  33   2.0000      -0.824705       -22.4414
  34   2.0000      -0.797265       -21.6947
  35   2.0000      -0.771930       -21.0053
  36   2.0000      -0.741349       -20.1731
  37   2.0000      -0.723223       -19.6799
  38   2.0000      -0.719917       -19.5900
  39   2.0000      -0.669344       -18.2138
  40   2.0000      -0.656059       -17.8523
  41   2.0000      -0.647353       -17.6154
  42   2.0000      -0.636050       -17.3078
  43   2.0000      -0.631590       -17.1864
  44   2.0000      -0.618963       -16.8428
  45   2.0000      -0.615372       -16.7451
  46   2.0000      -0.599113       -16.3027
  47   2.0000      -0.590803       -16.0766
  48   2.0000      -0.579795       -15.7770
  49   2.0000      -0.575705       -15.6657
  50   2.0000      -0.570430       -15.5222
  51   2.0000      -0.561730       -15.2855
  52   2.0000      -0.558645       -15.2015
  53   2.0000      -0.552986       -15.0475
  54   2.0000      -0.548448       -14.9240
  55   2.0000      -0.529057       -14.3964
  56   2.0000      -0.522882       -14.2283
  57   2.0000      -0.507434       -13.8080
  58   2.0000      -0.503424       -13.6989
  59   2.0000      -0.500485       -13.6189
  60   2.0000      -0.492218       -13.3939
  61   2.0000      -0.477823       -13.0022
  62   2.0000      -0.473314       -12.8795
  63   2.0000      -0.455524       -12.3954
  64   2.0000      -0.430115       -11.7040
  65   2.0000      -0.424904       -11.5622
  66   2.0000      -0.377918       -10.2837
  67   2.0000      -0.340835        -9.2746
  68   2.0000      -0.326340        -8.8802
  69   2.0000      -0.275882        -7.5071
  70   0.0000       0.067312         1.8316
  71   0.0000       0.122685         3.3384
  72   0.0000       0.173869         4.7312
  73   0.0000       0.175953         4.7879
  74   0.0000       0.176477         4.8022

MULLIKEN ATOMIC CHARGES
-----------------------
   0 C :    0.050982
   1 C :   -0.025010
   2 C :   -0.048871
   3 C :    0.183746
   4 N :   -0.624605
   5 C :    0.151073
   6 C :    0.154182
   7 N :   -0.405190
   8 C :    0.179010
   9 C :   -0.143590
  10 C :    0.329144
  11 O :   -0.365832
  12 C :   -0.137752
  13 C :   -0.048226
  14 C :    0.054220
  15 C :   -0.097427
  16 C :    0.154234
  17 N :   -0.400612
  18 C :    0.115354
  19 H :    0.020109
  20 H :    0.019895
  21 H :    0.035503
  22 H :    0.042904
  23 H :    0.028706
  24 H :    0.028335
  25 H :    0.023929
  26 H :    0.048156
  27 H :    0.003300
  28 H :    0.027113
  29 H :    0.032081
  30 H :    0.028694
  31 H :    0.026214
  32 H :    0.002965
  33 H :    0.167441
  34 H :    0.037834
  35 H :    0.209868
  36 H :    0.001060
  37 H :    0.041149
  38 H :    0.050469
  39 H :    0.049444
Sum of atomic charges:   -0.0000000

LOEWDIN ATOMIC CHARGES
----------------------
   0 C :   -0.030568
   1 C :    0.054452
   2 C :   -0.038762
   3 C :    0.060076
   4 N :   -0.202785
   5 C :    0.054524
   6 C :    0.053506
   7 N :   -0.097085
   8 C :    0.087520
   9 C :   -0.093808
  10 C :    0.114295
  11 O :   -0.117287
  12 C :   -0.131914
  13 C :   -0.020490
  14 C :    0.029275
  15 C :   -0.055757
  16 C :    0.046986
  17 N :   -0.135887
  18 C :   -0.018447
  19 H :    0.014327
  20 H :    0.010939
  21 H :    0.018019
  22 H :    0.014354
  23 H :    0.012773
  24 H :    0.012132
  25 H :    0.009001
  26 H :    0.013635
  27 H :   -0.010538
  28 H :    0.011144
  29 H :    0.014135
  30 H :    0.011884
  31 H :    0.011836
  32 H :   -0.010923
  33 H :    0.069628
  34 H :    0.034232
  35 H :    0.102101
  36 H :    0.017780
  37 H :    0.031406
  38 H :    0.032656
  39 H :    0.021639

  Mayer bond orders larger than 0.100000
B(  0-C ,  1-C ) :   1.0431 B(  0-C , 19-H ) :   0.9774 B(  0-C , 20-H ) :   0.9835
B(  0-C , 21-H ) :   0.9848 B(  1-C ,  2-C ) :   1.0088 B(  1-C ,  7-N ) :   0.9148
B(  1-C , 22-H ) :   0.9675 B(  2-C ,  3-C ) :   0.9973 B(  2-C , 23-H ) :   0.9690
B(  2-C , 24-H ) :   0.9552 B(  3-C ,  4-N ) :   0.9629 B(  3-C , 25-H ) :   0.9832
B(  3-C , 26-H ) :   0.9813 B(  4-N ,  5-C ) :   0.9465 B(  4-N ,  6-C ) :   0.9470
B(  5-C , 27-H ) :   0.9772 B(  5-C , 28-H ) :   0.9914 B(  5-C , 29-H ) :   0.9903
B(  6-C , 30-H ) :   0.9917 B(  6-C , 31-H ) :   0.9904 B(  6-C , 32-H ) :   0.9762
B(  7-N ,  8-C ) :   1.1238 B(  7-N , 33-H ) :   0.9271 B(  8-C ,  9-C ) :   1.4942
B(  8-C , 18-C ) :   1.2204 B(  9-C , 10-C ) :   1.2515 B(  9-C , 34-H ) :   1.0212
B( 10-C , 11-O ) :   1.0647 B( 10-C , 12-C ) :   1.4608 B( 11-O , 35-H ) :   0.9600
B( 12-C , 13-C ) :   1.2368 B( 12-C , 36-H ) :   1.0065 B( 13-C , 14-C ) :   1.2890
B( 13-C , 18-C ) :   1.2672 B( 14-C , 15-C ) :   1.5458 B( 14-C , 37-H ) :   0.9941
B( 15-C , 16-C ) :   1.2896 B( 15-C , 38-H ) :   0.9894 B( 16-C , 17-N ) :   1.5624
B( 16-C , 39-H ) :   1.0016 B( 17-N , 18-C ) :   1.3237

FINAL SINGLE POINT ENERGY      -817.830110275369

DIPOLE MOMENT
-------------
                                X             Y             Z
Electronic contribution:     25.46937       0.34118      -3.42845
Nuclear contribution   :    -25.16394      -0.51728       2.68036
                        -----------------------------------------
Total Dipole Moment    :      0.30543      -0.17610      -0.74809
                        -----------------------------------------
Magnitude (a.u.)       :      0.82700
Magnitude (Debye)      :      2.10207

Rotational constants in cm-1:     0.014843     0.008554     0.007233
Rotational constants in MHz :   444.985455   256.434277   216.844683

                             ****ORCA TERMINATED NORMALLY****
TOTAL RUN TIME: 0 days 0 hours 0 minutes 22 seconds 294 msec
