                         Program Version 5.0.3 -  RELEASE  -
|  1> !RHF def2-SVP TightSCF PAL16
|  2> *xyz 0 1
|  3> C 0.07185265014237366 -1.9461093530005131 -1.5902999034789385
|  4> C 0.6787757834039418 -0.5934904131029541 -1.2010924672845855
|  5> C 2.0587514710877075 -0.44186445197112423 -1.8796749516370745
|  6> N 2.6495145145985908 0.8926102333056432 -1.6744185529161961
|  7> C 2.057279715190701 1.8841764284702482 -2.5825361189843847
|  8> C 4.101004368846997 0.8449219121682927 -1.8993712190034555
|  9> C 0.8196470688712635 -0.4665845921827282 0.3371479226711543
| 10> N -0.4909014152976736 -0.2877399241791496 1.021840578653783
| 11> C -1.0607482678021307 -1.4424441222727402 1.620543678867498
| 12> C -0.2591623147113158 -2.3870336564791055 2.287044932972615
| 13> C -0.7995951950636779 -3.547468011322688 2.8534659144809713
| 14> C -2.1646540403585486 -3.781444909601254 2.7990724624392618
| 15> C -2.988815781833225 -2.836616389390818 2.2062394570811827
| 16> C -2.4521878230569025 -1.670029577095571 1.6303024901649377
| 17> S -3.616956062304733 -0.5446635436164535 0.9092504687854114
| 18> C -2.619371964708166 0.912285187025204 0.665822821623946
| 19> C -3.3144231144097014 2.0965247892499446 0.3631504888650665
| 20> C -2.631602496917066 3.285015113315563 0.11389136938583863
| 21> C -1.2411407315833471 3.2996236985910805 0.17174890419313407
| 22> C -0.5244331649581186 4.506590471071028 -0.1003176989851242
| 23> N 0.05459212100401935 5.473984797373023 -0.3459375745281641
| 24> C -0.5442766710250353 2.121689666581325 0.4733884035395677
| 25> C -1.2113634740157608 0.8978453758650782 0.7124533646981664
| 26> H 0.0015185978339757808 -2.0413062955232086 -2.6788662415806317
| 27> H 0.678982724522155 -2.7784849433256587 -1.217028476807162
| 28> H -0.9400761397590045 -2.055837258086967 -1.1913986840344215
| 29> H 0.006401515868715551 0.17793979611234034 -1.589617243490727
| 30> H 2.722187310189245 -1.209750885338842 -1.4527103090209996
| 31> H 1.983609398716921 -0.664295923034626 -2.9538363720714114
| 32> H 2.216991543574485 1.6248289606282387 -3.636426537360351
| 33> H 0.9766460044920365 1.9907391730139983 -2.4164864654527523
| 34> H 2.493276383425137 2.8757887694660087 -2.401842131221302
| 35> H 4.550764181727493 1.8335198982717196 -1.740751360730285
| 36> H 4.5791695984607985 0.16678117779610485 -1.1883648925113246
| 37> H 4.346740063419685 0.5158673869100555 -2.9141995672156225
| 38> H 1.483541693443508 0.35858785197031046 0.6156716672945888
| 39> H 1.366789358168691 -1.3490725866951112 0.6853008627996302
| 40> H 0.8093531679379514 -2.2199062403619076 2.416363286209365
| 41> H -0.14787640372414274 -4.263138787763202 3.336365826633667
| 42> H -2.5901164715995177 -4.681584637285472 3.2344688878313583
| 43> H -4.058585019243048 -3.0171976260571265 2.1906885406337735
| 44> H -4.402420571853271 2.094795670910133 0.31767396370471634
| 45> H -3.1925001417987344 4.1880090733951985 -0.11983594378341769
| 46> H 0.5438180310696242 2.1839386962142626 0.537302211968745
| 47> *
| 48>
| 49>                          ****END OF INPUT****

CARTESIAN COORDINATES (ANGSTROEM)
---------------------------------
  C      0.071853   -1.946109   -1.590300
  C      0.678776   -0.593490   -1.201092
  C      2.058751   -0.441864   -1.879675
  N      2.649515    0.892610   -1.674419
  C      2.057280    1.884176   -2.582536
  C      4.101004    0.844922   -1.899371
  C      0.819647   -0.466585    0.337148
  N     -0.490901   -0.287740    1.021841
  C     -1.060748   -1.442444    1.620544
  C     -0.259162   -2.387034    2.287045
  C     -0.799595   -3.547468    2.853466
  C     -2.164654   -3.781445    2.799072
  C     -2.988816   -2.836616    2.206239
  C     -2.452188   -1.670030    1.630302
  S     -3.616956   -0.544664    0.909250
  C     -2.619372    0.912285    0.665823
  C     -3.314423    2.096525    0.363150
  C     -2.631602    3.285015    0.113891
  C     -1.241141    3.299624    0.171749
  C     -0.524433    4.506590   -0.100318
  N      0.054592    5.473985   -0.345938
  C     -0.544277    2.121690    0.473388
  C     -1.211363    0.897845    0.712453
  H      0.001519   -2.041306   -2.678866
  H      0.678983   -2.778485   -1.217028
  H     -0.940076   -2.055837   -1.191399
  H      0.006402    0.177940   -1.589617
  H      2.722187   -1.209751   -1.452710
  H      1.983609   -0.664296   -2.953836
  H      2.216992    1.624829   -3.636427
  H      0.976646    1.990739   -2.416486
  H      2.493276    2.875789   -2.401842
  H      4.550764    1.833520   -1.740751
  H      4.579170    0.166781   -1.188365
  H      4.346740    0.515867   -2.914200
  H      1.483542    0.358588    0.615672
  H      1.366789   -1.349073    0.685301
  H      0.809353   -2.219906    2.416363
  H     -0.147876   -4.263139    3.336366
  H     -2.590116   -4.681585    3.234469
  H     -4.058585   -3.017198    2.190689
  H     -4.402421    2.094796    0.317674
  H     -3.192500    4.188009   -0.119836
  H      0.543818    2.183939    0.537302

 Total Charge           Charge          ....    0
 Multiplicity           Mult            ....    1
 Number of Electrons    NEL             ....  172
 Basis Dimension        Dim             ....  431

ORBITAL ENERGIES
----------------

  NO   OCC          E(Eh)            E(eV)
   0   2.0000     -91.944558     -2501.9386
   1   2.0000     -15.598230      -424.4494
   2   2.0000     -15.573096      -423.7655
   3   2.0000     -15.553223      -423.2247
   4   2.0000     -11.316979      -307.9506
   5   2.0000     -11.306444      -307.6640
   6   2.0000     -11.297350      -307.4165
   7   2.0000     -11.289075      -307.1914
   8   2.0000     -11.282020      -306.9994
   9   2.0000     -11.280887      -306.9686
  10   2.0000     -11.274852      -306.8043
  11   2.0000     -11.272170      -306.7313
  12   2.0000     -11.268646      -306.6354
  13   2.0000     -11.267491      -306.6040
  14   2.0000     -11.260016      -306.4006
  15   2.0000     -11.256510      -306.3052
  16   2.0000     -11.254118      -306.2401
  17   2.0000     -11.252362      -306.1923
  18   2.0000     -11.251248      -306.1620
  19   2.0000     -11.250121      -306.1313
  20   2.0000     -11.243881      -305.9616
  21   2.0000     -11.236785      -305.7685
  22   2.0000     -11.224892      -305.4448
  23   2.0000      -8.979913      -244.3559
  24   2.0000      -6.667974      -181.4448
  25   2.0000      -6.666339      -181.4003
  26   2.0000      -6.664082      -181.3389
  27   2.0000      -1.273768       -34.6610
  28   2.0000      -1.215643       -33.0793
  29   2.0000      -1.212523       -32.9944
  30   2.0000      -1.170187       -31.8424
  31   2.0000      -1.153330       -31.3837
  32   2.0000      -1.092553       -29.7299
  33   2.0000      -1.068381       -29.0721
  34   2.0000      -1.041003       -28.3271
  35   2.0000      -1.035463       -28.1764
  36   2.0000      -1.000613       -27.2281
  37   2.0000      -0.952770       -25.9262
  38   2.0000      -0.942374       -25.6433
  39   2.0000      -0.931804       -25.3557
  40   2.0000      -0.925131       -25.1741
  41   2.0000      -0.872954       -23.7543
  42   2.0000      -0.848412       -23.0865
  43   2.0000      -0.834287       -22.7021
  44   2.0000      -0.814955       -22.1761
  45   2.0000      -0.803115       -21.8539
  46   2.0000      -0.774620       -21.0785
  47   2.0000      -0.757123       -20.6024
  48   2.0000      -0.716305       -19.4916
  49   2.0000      -0.686446       -18.6792
  50   2.0000      -0.671789       -18.2803
  51   2.0000      -0.667647       -18.1676
  52   2.0000      -0.660651       -17.9772
  53   2.0000      -0.650750       -17.7078
  54   2.0000      -0.645599       -17.5677
  55   2.0000      -0.630449       -17.1554
  56   2.0000      -0.621512       -16.9122
  57   2.0000      -0.619874       -16.8676
  58   2.0000      -0.613757       -16.7012
  59   2.0000      -0.603867       -16.4320
  60   2.0000      -0.576547       -15.6886
  61   2.0000      -0.573793       -15.6137
  62   2.0000      -0.567115       -15.4320
  63   2.0000      -0.562136       -15.2965
  64   2.0000      -0.553648       -15.0655
  65   2.0000      -0.550611       -14.9829
  66   2.0000      -0.546172       -14.8621
  67   2.0000      -0.541415       -14.7327
  68   2.0000      -0.528442       -14.3796
  69   2.0000      -0.526925       -14.3384
  70   2.0000      -0.516533       -14.0556
  71   2.0000      -0.513226       -13.9656
  72   2.0000      -0.511998       -13.9322
  73   2.0000      -0.505076       -13.7438
  74   2.0000      -0.493972       -13.4417
  75   2.0000      -0.477408       -12.9909
  76   2.0000      -0.470924       -12.8145
  77   2.0000      -0.470006       -12.7895
  78   2.0000      -0.466288       -12.6883
  79   2.0000      -0.447528       -12.1779
  80   2.0000      -0.430894       -11.7252
  81   2.0000      -0.366412        -9.9706
  82   2.0000      -0.362955        -9.8765
  83   2.0000      -0.362202        -9.8560
  84   2.0000      -0.324118        -8.8197
  85   2.0000      -0.273198        -7.4341
  86   0.0000       0.072056         1.9607
  87   0.0000       0.100364         2.7310
  88   0.0000       0.114695         3.1210
  89   0.0000       0.139751         3.8028
  90   0.0000       0.163441         4.4475

MULLIKEN ATOMIC CHARGES
-----------------------
   0 C :    0.007732
   1 C :   -0.217555
   2 C :    0.198872
   3 N :   -0.636796
   4 C :    0.135706
   5 C :    0.152630
   6 C :    0.222718
   7 N :   -0.674791
   8 C :    0.276436
   9 C :   -0.098700
  10 C :   -0.007889
  11 C :   -0.046379
  12 C :    0.000919
  13 C :   -0.159919
  14 S :    0.144903
  15 C :   -0.138722
  16 C :   -0.010741
  17 C :    0.027700
  18 C :   -0.176236
  19 C :    0.040509
  20 N :   -0.104384
  21 C :   -0.016167
  22 C :    0.272011
  23 H :    0.033228
  24 H :    0.022619
  25 H :    0.053893
  26 H :    0.053823
  27 H :    0.017104
  28 H :    0.013559
  29 H :    0.005773
  30 H :    0.038679
  31 H :    0.046038
  32 H :    0.036251
  33 H :    0.029528
  34 H :    0.003937
  35 H :    0.062385
  36 H :    0.038939
  37 H :    0.046931
  38 H :    0.041745
  39 H :    0.044127
  40 H :    0.043139
  41 H :    0.053649
  42 H :    0.056142
  43 H :    0.066655
Sum of atomic charges:   -0.0000000

LOEWDIN ATOMIC CHARGES
----------------------
   0 C :   -0.027279
   1 C :   -0.041954
   2 C :    0.068056
   3 N :   -0.207962
   4 C :    0.054103
   5 C :    0.056562
   6 C :    0.092526
   7 N :   -0.133385
   8 C :    0.049500
   9 C :   -0.047399
  10 C :   -0.013532
  11 C :   -0.040492
  12 C :   -0.026082
  13 C :   -0.178765
  14 S :    0.320047
  15 C :   -0.148639
  16 C :   -0.030138
  17 C :    0.000495
  18 C :   -0.082311
  19 C :    0.009920
  20 N :   -0.104546
  21 C :   -0.002287
  22 C :    0.051082
  23 H :    0.016898
  24 H :    0.012653
  25 H :    0.021274
  26 H :    0.013673
  27 H :    0.009031
  28 H :   -0.002583
  29 H :   -0.006076
  30 H :    0.011439
  31 H :    0.018616
  32 H :    0.014839
  33 H :    0.010165
  34 H :   -0.006279
  35 H :    0.014679
  36 H :    0.018901
  37 H :    0.029491
  38 H :    0.028800
  39 H :    0.029149
  40 H :    0.029186
  41 H :    0.034582
  42 H :    0.039813
  43 H :    0.044231

  Mayer bond orders larger than 0.100000
B(  0-C ,  1-C ) :   1.0254 B(  0-C , 23-H ) :   0.9841 B(  0-C , 24-H ) :   0.9816
B(  0-C , 25-H ) :   0.9838 B(  1-C ,  2-C ) :   1.0101 B(  1-C ,  6-C ) :   0.9783
B(  1-C , 26-H ) :   0.9552 B(  2-C ,  3-N ) :   0.9365 B(  2-C , 27-H ) :   0.9726
B(  2-C , 28-H ) :   0.9719 B(  3-N ,  4-C ) :   0.9340 B(  3-N ,  5-C ) :   0.9452
B(  4-C , 29-H ) :   0.9761 B(  4-C , 30-H ) :   0.9910 B(  4-C , 31-H ) :   0.9910
B(  5-C , 32-H ) :   0.9921 B(  5-C , 33-H ) :   0.9917 B(  5-C , 34-H ) :   0.9770
B(  6-C ,  7-N ) :   0.8954 B(  6-C , 35-H ) :   0.9801 B(  6-C , 36-H ) :   0.9752
B(  7-N ,  8-C ) :   0.9379 B(  7-N , 22-C ) :   0.9528 B(  8-C ,  9-C ) :   1.4219
B(  8-C , 13-C ) :   1.4322 B(  9-C , 10-C ) :   1.4232 B(  9-C , 37-H ) :   0.9969
B( 10-C , 11-C ) :   1.4027 B( 10-C , 38-H ) :   0.9980 B( 11-C , 12-C ) :   1.4448
B( 11-C , 39-H ) :   1.0011 B( 12-C , 13-C ) :   1.4174 B( 12-C , 40-H ) :   0.9976
B( 13-C , 14-S ) :   0.9584 B( 14-S , 15-C ) :   0.9756 B( 15-C , 16-C ) :   1.4164
B( 15-C , 22-C ) :   1.4182 B( 16-C , 17-C ) :   1.4534 B( 16-C , 41-H ) :   0.9958
B( 17-C , 18-C ) :   1.3794 B( 17-C , 42-H ) :   1.0013 B( 18-C , 19-C ) :   1.0308
B( 18-C , 21-C ) :   1.3817 B( 19-C , 20-N ) :   3.0282 B( 21-C , 22-C ) :   1.4365
B( 21-C , 43-H ) :   1.0026

FINAL SINGLE POINT ENERGY     -1291.774084926612

DIPOLE MOMENT
-------------
                                X             Y             Z
Electronic contribution:    -25.75114       8.24057      16.61760
Nuclear contribution   :     25.85394     -10.10606     -16.72757
                        -----------------------------------------
Total Dipole Moment    :      0.10281      -1.86549      -0.10997
                        -----------------------------------------
Magnitude (a.u.)       :      1.87156
Magnitude (Debye)      :      4.75712

Rotational constants in cm-1:     0.010218     0.006464     0.004435
Rotational constants in MHz :   306.337301   193.790528   132.968520

                             ****ORCA TERMINATED NORMALLY****
TOTAL RUN TIME: 0 days 0 hours 0 minutes 34 seconds 17 msec
