                         Program Version 5.0.3 -  RELEASE  -
|  1> !RHF def2-SVP TightSCF PAL16
|  2> *xyz 0 1
|  3> C 5.357143971701976 -0.9788103975394474 0.0020001805959851647
|  4> C 3.8267266731817258 -0.9727904902773348 0.06692708124934742
|  5> C 3.2565102066353555 -0.8398300753005576 -1.345276845167712
|  6> C 3.355845707987487 0.14273109685455465 1.0229275178608184
|  7> C 1.851985119494378 0.15119699415779825 1.2932692412814617
|  8> O 1.1675960558099907 0.7153092924601626 0.1788378021965049
|  9> C -0.2650714848468058 0.6960616855176464 0.33095493178387486
| 10> C -0.8256574295113588 -0.6159671284416376 -0.2885834923467583
| 11> N -2.188033177160058 -0.9779335159778322 0.141714127133017
| 12> C -2.7232630594749456 -2.0979027939584416 -0.6350126580385554
| 13> C -3.933996259458556 -2.5248797139293204 0.17839250763055622
| 14> C -3.607902662468832 -2.123028114227991 1.6122828938701348
| 15> C -2.2602656714811276 -1.4186262404428265 1.535450415339688
| 16> C -0.8532588451168747 1.9340968949827158 -0.33137058827527693
| 17> C -0.18761474983015877 2.6055339431322992 -1.3691386938012335
| 18> C -0.7526666783827236 3.7329387588636496 -1.9691559915561205
| 19> C -1.9938837918982502 4.201611824426525 -1.5449101771627876
| 20> C -2.67219687429398 3.54220017404847 -0.5225905179985969
| 21> C -2.106905707717622 2.415859411994976 0.07877427565095584
| 22> H 5.717332406404955 -1.7949552143111627 -0.633390641464328
| 23> H 5.789261720314121 -1.1194760749878105 0.998443758131939
| 24> H 5.7410834646245155 -0.03712108377458254 -0.40506102518338866
| 25> H 3.506956348416806 -1.9404038172543978 0.4742502831416244
| 26> H 2.1778976418053637 -1.019068353703313 -1.3573938043828264
| 27> H 3.446553372949331 0.1559112652094281 -1.7595445615720686
| 28> H 3.7080205893525995 -1.576933258934658 -2.0183689660582327
| 29> H 3.8678338103610956 0.00955341751057723 1.9843076829831372
| 30> H 3.661701850911815 1.1177101146576798 0.6228960853815545
| 31> H 1.6554826485257423 0.7760427510789791 2.1722989245926376
| 32> H 1.4915979977094576 -0.862664992891598 1.4985016555451491
| 33> H -0.4939102158260687 0.7533653075792245 1.402783734471537
| 34> H -0.8127440536423725 -0.5058833918591675 -1.382079438377663
| 35> H -0.139101092001458 -1.4462336049202704 -0.07638351175469246
| 36> H -2.0061323027890023 -2.9263827204070365 -0.6990515505839257
| 37> H -3.005583559204938 -1.7996888531731454 -1.6495920749107797
| 38> H -4.833076317770213 -1.995347138011423 -0.15868036288500612
| 39> H -4.123872681315145 -3.599123483708114 0.08898229237264638
| 40> H -4.382118606318007 -1.4476677296290457 1.9945163329266389
| 41> H -3.564330845285259 -2.9933737569656387 2.2750641374139535
| 42> H -1.4590398369528763 -2.12797949956791 1.7788509276767568
| 43> H -2.2123310454048757 -0.5842657499852018 2.2415814400418075
| 44> H 0.7814592116269881 2.2522443852146314 -1.7157019142582413
| 45> H -0.2222481247147569 4.242765640516853 -2.768751298562822
| 46> H -2.433943040357962 5.077301770138591 -2.0137311324133353
| 47> H -3.6446052115785865 3.9000601191289945 -0.19558127821080037
| 48> H -2.6572354730111103 1.9038423467064651 0.8653422956933238
| 49> *
| 50>
| 51>                          ****END OF INPUT****

CARTESIAN COORDINATES (ANGSTROEM)
---------------------------------
  C      5.357144   -0.978810    0.002000
  C      3.826727   -0.972790    0.066927
  C      3.256510   -0.839830   -1.345277
  C      3.355846    0.142731    1.022928
  C      1.851985    0.151197    1.293269
  O      1.167596    0.715309    0.178838
  C     -0.265071    0.696062    0.330955
  C     -0.825657   -0.615967   -0.288583
  N     -2.188033   -0.977934    0.141714
  C     -2.723263   -2.097903   -0.635013
  C     -3.933996   -2.524880    0.178393
  C     -3.607903   -2.123028    1.612283
  C     -2.260266   -1.418626    1.535450
  C     -0.853259    1.934097   -0.331371
  C     -0.187615    2.605534   -1.369139
  C     -0.752667    3.732939   -1.969156
  C     -1.993884    4.201612   -1.544910
  C     -2.672197    3.542200   -0.522591
  C     -2.106906    2.415859    0.078774
  H      5.717332   -1.794955   -0.633391
  H      5.789262   -1.119476    0.998444
  H      5.741083   -0.037121   -0.405061
  H      3.506956   -1.940404    0.474250
  H      2.177898   -1.019068   -1.357394
  H      3.446553    0.155911   -1.759545
  H      3.708021   -1.576933   -2.018369
  H      3.867834    0.009553    1.984308
  H      3.661702    1.117710    0.622896
  H      1.655483    0.776043    2.172299
  H      1.491598   -0.862665    1.498502
  H     -0.493910    0.753365    1.402784
  H     -0.812744   -0.505883   -1.382079
  H     -0.139101   -1.446234   -0.076384
  H     -2.006132   -2.926383   -0.699052
  H     -3.005584   -1.799689   -1.649592
  H     -4.833076   -1.995347   -0.158680
  H     -4.123873   -3.599123    0.088982
  H     -4.382119   -1.447668    1.994516
  H     -3.564331   -2.993374    2.275064
  H     -1.459040   -2.127979    1.778851
  H     -2.212331   -0.584266    2.241581
  H      0.781459    2.252244   -1.715702
  H     -0.222248    4.242766   -2.768751
  H     -2.433943    5.077302   -2.013731
  H     -3.644605    3.900060   -0.195581
  H     -2.657235    1.903842    0.865342

 Total Charge           Charge          ....    0
 Multiplicity           Mult            ....    1
 Number of Electrons    NEL             ....  144
 Basis Dimension        Dim             ....  401

ORBITAL ENERGIES
----------------

  NO   OCC          E(Eh)            E(eV)
   0   2.0000     -20.546831      -559.1077
   1   2.0000     -15.546384      -423.0386
   2   2.0000     -11.289195      -307.1946
   3   2.0000     -11.278223      -306.8961
   4   2.0000     -11.253964      -306.2359
   5   2.0000     -11.250836      -306.1508
   6   2.0000     -11.248544      -306.0885
   7   2.0000     -11.234515      -305.7067
   8   2.0000     -11.229647      -305.5742
   9   2.0000     -11.228673      -305.5477
  10   2.0000     -11.228340      -305.5387
  11   2.0000     -11.227026      -305.5029
  12   2.0000     -11.225881      -305.4718
  13   2.0000     -11.223573      -305.4090
  14   2.0000     -11.221630      -305.3561
  15   2.0000     -11.221319      -305.3476
  16   2.0000     -11.219530      -305.2989
  17   2.0000     -11.214509      -305.1623
  18   2.0000     -11.206901      -304.9553
  19   2.0000      -1.352631       -36.8070
  20   2.0000      -1.232625       -33.5414
  21   2.0000      -1.133569       -30.8460
  22   2.0000      -1.080432       -29.4001
  23   2.0000      -1.057357       -28.7722
  24   2.0000      -1.021000       -27.7828
  25   2.0000      -0.993032       -27.0218
  26   2.0000      -0.976000       -26.5583
  27   2.0000      -0.974845       -26.5269
  28   2.0000      -0.936927       -25.4951
  29   2.0000      -0.911632       -24.8068
  30   2.0000      -0.859075       -23.3766
  31   2.0000      -0.834690       -22.7131
  32   2.0000      -0.806600       -21.9487
  33   2.0000      -0.792941       -21.5770
  34   2.0000      -0.783824       -21.3289
  35   2.0000      -0.766491       -20.8573
  36   2.0000      -0.757596       -20.6152
  37   2.0000      -0.694023       -18.8853
  38   2.0000      -0.683951       -18.6113
  39   2.0000      -0.675218       -18.3736
  40   2.0000      -0.658137       -17.9088
  41   2.0000      -0.641897       -17.4669
  42   2.0000      -0.636977       -17.3330
  43   2.0000      -0.620658       -16.8890
  44   2.0000      -0.609882       -16.5957
  45   2.0000      -0.605212       -16.4687
  46   2.0000      -0.595061       -16.1924
  47   2.0000      -0.589209       -16.0332
  48   2.0000      -0.582876       -15.8609
  49   2.0000      -0.575481       -15.6596
  50   2.0000      -0.558773       -15.2050
  51   2.0000      -0.555249       -15.1091
  52   2.0000      -0.536750       -14.6057
  53   2.0000      -0.531631       -14.4664
  54   2.0000      -0.530691       -14.4408
  55   2.0000      -0.513655       -13.9773
  56   2.0000      -0.508098       -13.8261
  57   2.0000      -0.507590       -13.8122
  58   2.0000      -0.495286       -13.4774
  59   2.0000      -0.485434       -13.2093
  60   2.0000      -0.485418       -13.2089
  61   2.0000      -0.482691       -13.1347
  62   2.0000      -0.479018       -13.0347
  63   2.0000      -0.464812       -12.6482
  64   2.0000      -0.461391       -12.5551
  65   2.0000      -0.459606       -12.5065
  66   2.0000      -0.456465       -12.4210
  67   2.0000      -0.446047       -12.1376
  68   2.0000      -0.414839       -11.2883
  69   2.0000      -0.362785        -9.8719
  70   2.0000      -0.326563        -8.8862
  71   2.0000      -0.320744        -8.7279
  72   0.0000       0.138809         3.7772
  73   0.0000       0.141482         3.8499
  74   0.0000       0.163850         4.4586
  75   0.0000       0.174674         4.7531
  76   0.0000       0.185853         5.0573

MULLIKEN ATOMIC CHARGES
-----------------------
   0 C :    0.019235
   1 C :   -0.275671
   2 C :    0.030746
   3 C :   -0.027194
   4 C :    0.309024
   5 O :   -0.626709
   6 C :    0.340528
   7 C :    0.234085
   8 N :   -0.676128
   9 C :    0.187044
  10 C :   -0.057449
  11 C :   -0.067211
  12 C :    0.185112
  13 C :   -0.179908
  14 C :   -0.005246
  15 C :   -0.035231
  16 C :   -0.038494
  17 C :   -0.039062
  18 C :   -0.008007
  19 H :    0.028481
  20 H :    0.022847
  21 H :    0.023917
  22 H :    0.023570
  23 H :    0.037688
  24 H :    0.024362
  25 H :    0.016670
  26 H :    0.025601
  27 H :    0.039321
  28 H :    0.016699
  29 H :    0.003474
  30 H :    0.024842
  31 H :    0.032956
  32 H :    0.007327
  33 H :    0.002942
  34 H :    0.037960
  35 H :    0.039928
  36 H :    0.031979
  37 H :    0.037320
  38 H :    0.032458
  39 H :    0.002771
  40 H :    0.032365
  41 H :    0.049535
  42 H :    0.035774
  43 H :    0.035499
  44 H :    0.034559
  45 H :    0.029693
Sum of atomic charges:   -0.0000000

LOEWDIN ATOMIC CHARGES
----------------------
   0 C :   -0.028918
   1 C :   -0.035848
   2 C :   -0.029065
   3 C :   -0.021225
   4 C :    0.129111
   5 O :   -0.252884
   6 C :    0.127181
   7 C :    0.063229
   8 N :   -0.200475
   9 C :    0.066011
  10 C :   -0.023455
  11 C :   -0.022871
  12 C :    0.059151
  13 C :   -0.032048
  14 C :   -0.015729
  15 C :   -0.027936
  16 C :   -0.032417
  17 C :   -0.028430
  18 C :   -0.019990
  19 H :    0.013825
  20 H :    0.011379
  21 H :    0.013983
  22 H :    0.007473
  23 H :    0.013493
  24 H :    0.015104
  25 H :    0.009743
  26 H :    0.016148
  27 H :    0.020578
  28 H :    0.001163
  29 H :   -0.004877
  30 H :    0.006743
  31 H :    0.017655
  32 H :   -0.007931
  33 H :   -0.009297
  34 H :    0.013622
  35 H :    0.018853
  36 H :    0.014271
  37 H :    0.017649
  38 H :    0.014702
  39 H :   -0.009750
  40 H :    0.006120
  41 H :    0.029535
  42 H :    0.024810
  43 H :    0.023626
  44 H :    0.024545
  45 H :    0.023443

  Mayer bond orders larger than 0.100000
B(  0-C ,  1-C ) :   1.0289 B(  0-C , 19-H ) :   0.9878 B(  0-C , 20-H ) :   0.9861
B(  0-C , 21-H ) :   0.9819 B(  1-C ,  2-C ) :   1.0105 B(  1-C ,  3-C ) :   1.0088
B(  1-C , 22-H ) :   0.9656 B(  2-C , 23-H ) :   0.9837 B(  2-C , 24-H ) :   0.9798
B(  2-C , 25-H ) :   0.9851 B(  3-C ,  4-C ) :   1.0382 B(  3-C , 26-H ) :   0.9732
B(  3-C , 27-H ) :   0.9635 B(  4-C ,  5-O ) :   0.8783 B(  4-C , 28-H ) :   0.9750
B(  4-C , 29-H ) :   0.9641 B(  5-O ,  6-C ) :   0.8627 B(  6-C ,  7-C ) :   1.0142
B(  6-C , 13-C ) :   0.9887 B(  6-C , 30-H ) :   0.9777 B(  7-C ,  8-N ) :   0.9370
B(  7-C , 31-H ) :   0.9641 B(  7-C , 32-H ) :   0.9717 B(  8-N ,  9-C ) :   0.9240
B(  8-N , 12-C ) :   0.9192 B(  9-C , 10-C ) :   1.0634 B(  9-C , 33-H ) :   0.9643
B(  9-C , 34-H ) :   0.9754 B( 10-C , 11-C ) :   1.0362 B( 10-C , 35-H ) :   0.9675
B( 10-C , 36-H ) :   0.9762 B( 11-C , 12-C ) :   1.0637 B( 11-C , 37-H ) :   0.9701
B( 11-C , 38-H ) :   0.9741 B( 12-C , 39-H ) :   0.9626 B( 12-C , 40-H ) :   0.9735
B( 13-C , 14-C ) :   1.4269 B( 13-C , 18-C ) :   1.4248 B( 14-C , 15-C ) :   1.4174
B( 14-C , 41-H ) :   0.9999 B( 15-C , 16-C ) :   1.4107 B( 15-C , 42-H ) :   1.0017
B( 16-C , 17-C ) :   1.4128 B( 16-C , 43-H ) :   1.0001 B( 17-C , 18-C ) :   1.4289
B( 17-C , 44-H ) :   1.0002 B( 18-C , 45-H ) :   0.9980

FINAL SINGLE POINT ENERGY      -788.192866835299

DIPOLE MOMENT
-------------
                                X             Y             Z
Electronic contribution:    -11.26169      14.60571      -2.51953
Nuclear contribution   :     11.11606     -15.29739       3.04403
                        -----------------------------------------
Total Dipole Moment    :     -0.14562      -0.69168       0.52450
                        -----------------------------------------
Magnitude (a.u.)       :      0.88019
Magnitude (Debye)      :      2.23725

Rotational constants in cm-1:     0.012219     0.008030     0.005439
Rotational constants in MHz :   366.312267   240.731067   163.043122

                             ****ORCA TERMINATED NORMALLY****
TOTAL RUN TIME: 0 days 0 hours 0 minutes 22 seconds 694 msec
