                         Program Version 5.0.3 -  RELEASE  -
|  1> !RHF def2-SVP TightSCF PAL16
|  2> *xyz 0 1
|  3> C 2.4380409552846776 0.839167808007261 -1.8356887649915778
|  4> C 2.047273565071293 0.3316087685479066 -0.42815435501335775
|  5> C 2.734846846403099 1.2503144377929263 0.6457723349980136
|  6> C 4.129521069756285 0.864833050425359 0.940821441668579
|  7> C 5.132547382661937 1.5254807268897514 1.6009646661887829
|  8> O 6.237252055555514 0.7363431493930903 1.650800893712163
|  9> N 5.970113857748319 -0.4692680774643196 1.0147313269581897
| 10> C 4.703627784548059 -0.37120845542738257 0.6030402041069391
| 11> C 4.025280129372293 -1.4289615324471188 -0.17221065703929433
| 12> C 2.5014390921515837 -1.1901387661919127 -0.3221967328295487
| 13> C 1.6789204944342855 -1.9280606076840108 0.751703488446916
| 14> C 0.18640770571793902 -2.000257511107926 0.36681219718217734
| 15> C -0.22484579021315074 -0.8775994380114824 -0.6003466203921857
| 16> C 0.48906385784030976 0.4305421651649766 -0.18620173132167878
| 17> C -0.22229921150123838 1.6649676988734243 -0.763207718636563
| 18> C -1.6808157741649725 1.802214356768825 -0.2657017532207999
| 19> C -2.3898199236793483 0.4514531347256231 0.019254385343862604
| 20> C -2.3479984986144338 0.16554788169578438 1.5438921658423774
| 21> C -1.7276574365411448 -0.660803797842205 -0.826737416041657
| 22> C -2.6871686998036926 -1.844014173003498 -0.7314739644274
| 23> C -4.084321584476643 -1.2039805474123575 -0.5936082877375047
| 24> C -3.8591139777675876 0.3262098978232298 -0.5059039437516186
| 25> C -4.936359404238779 1.0216444480754039 0.32173507985317906
| 26> O -3.958143122579491 0.823768611600467 -1.848857777150804
| 27> H 1.9029406619817733 0.28809304817135345 -2.6166462593046855
| 28> H 2.2098469834900976 1.9025947277939068 -1.9629372589009604
| 29> H 3.5102576000351733 0.7206039313692745 -2.024183223136037
| 30> H 2.193637818023221 1.1929127691433794 1.5990923690456262
| 31> H 2.691742186873793 2.3004417763860427 0.33161186599094733
| 32> H 5.227276523904233 2.4910915193401073 2.074475785474002
| 33> H 4.220459391521954 -2.4139535911130396 0.26768382539093766
| 34> H 4.472953440772315 -1.4449922604962766 -1.1749606744833896
| 35> H 2.249456345553443 -1.6884330271872436 -1.2707939461097006
| 36> H 1.7862661346087148 -1.4187966670731282 1.7173095673233778
| 37> H 2.050390031646644 -2.94925930993933 0.8976741397272981
| 38> H -0.011259137258537808 -2.967305576495187 -0.11237177020093936
| 39> H -0.41198813578343063 -1.981383911247898 1.2837941526822199
| 40> H 0.15601607574260684 -1.1714919242528896 -1.5895939101049081
| 41> H 0.3651542523925091 0.5165367288030099 0.8992925369120428
| 42> H 0.3205333768164821 2.581364695526561 -0.504814255821615
| 43> H -0.23419266780081155 1.6042790253306536 -1.8586803081117897
| 44> H -2.225712370603965 2.400317439522599 -1.003143410329486
| 45> H -1.6795421293271595 2.415080332646054 0.645144633630754
| 46> H -1.3339434465780065 0.11435866195726362 1.9419759042983535
| 47> H -2.8385740067333796 -0.7758715217595513 1.809492404005297
| 48> H -2.853702539705227 0.9621193144380736 2.1016191785485403
| 49> H -1.7874694106568951 -0.33090983437995014 -1.878364589316137
| 50> H -2.626346781663279 -2.4823018659624467 -1.6191239444688539
| 51> H -2.487226959165324 -2.474201429527781 0.14093347455039792
| 52> H -4.567290366430998 -1.5955958760800097 0.30914407983076975
| 53> H -4.711038608157767 -1.4737714407365827 -1.4512255092479056
| 54> H -4.716676509988465 2.090103899052022 0.42390219940854734
| 55> H -5.039342742378169 0.5921896577923369 1.3225373192737362
| 56> H -5.910389354085863 0.9488957187784955 -0.17584655861642082
| 57> H -4.078027030008404 1.7874817610089835 -1.8120801994020395
| 58> *
| 59>
| 60>                          ****END OF INPUT****

CARTESIAN COORDINATES (ANGSTROEM)
---------------------------------
  C      2.438041    0.839168   -1.835689
  C      2.047274    0.331609   -0.428154
  C      2.734847    1.250314    0.645772
  C      4.129521    0.864833    0.940821
  C      5.132547    1.525481    1.600965
  O      6.237252    0.736343    1.650801
  N      5.970114   -0.469268    1.014731
  C      4.703628   -0.371208    0.603040
  C      4.025280   -1.428962   -0.172211
  C      2.501439   -1.190139   -0.322197
  C      1.678920   -1.928061    0.751703
  C      0.186408   -2.000258    0.366812
  C     -0.224846   -0.877599   -0.600347
  C      0.489064    0.430542   -0.186202
  C     -0.222299    1.664968   -0.763208
  C     -1.680816    1.802214   -0.265702
  C     -2.389820    0.451453    0.019254
  C     -2.347998    0.165548    1.543892
  C     -1.727657   -0.660804   -0.826737
  C     -2.687169   -1.844014   -0.731474
  C     -4.084322   -1.203981   -0.593608
  C     -3.859114    0.326210   -0.505904
  C     -4.936359    1.021644    0.321735
  O     -3.958143    0.823769   -1.848858
  H      1.902941    0.288093   -2.616646
  H      2.209847    1.902595   -1.962937
  H      3.510258    0.720604   -2.024183
  H      2.193638    1.192913    1.599092
  H      2.691742    2.300442    0.331612
  H      5.227277    2.491092    2.074476
  H      4.220459   -2.413954    0.267684
  H      4.472953   -1.444992   -1.174961
  H      2.249456   -1.688433   -1.270794
  H      1.786266   -1.418797    1.717310
  H      2.050390   -2.949259    0.897674
  H     -0.011259   -2.967306   -0.112372
  H     -0.411988   -1.981384    1.283794
  H      0.156016   -1.171492   -1.589594
  H      0.365154    0.516537    0.899293
  H      0.320533    2.581365   -0.504814
  H     -0.234193    1.604279   -1.858680
  H     -2.225712    2.400317   -1.003143
  H     -1.679542    2.415080    0.645145
  H     -1.333943    0.114359    1.941976
  H     -2.838574   -0.775872    1.809492
  H     -2.853703    0.962119    2.101619
  H     -1.787469   -0.330910   -1.878365
  H     -2.626347   -2.482302   -1.619124
  H     -2.487227   -2.474201    0.140933
  H     -4.567290   -1.595596    0.309144
  H     -4.711039   -1.473771   -1.451226
  H     -4.716677    2.090104    0.423902
  H     -5.039343    0.592190    1.322537
  H     -5.910389    0.948896   -0.175847
  H     -4.078027    1.787482   -1.812080

 Total Charge           Charge          ....    0
 Multiplicity           Mult            ....    1
 Number of Electrons    NEL             ....  180
 Basis Dimension        Dim             ....  491

ORBITAL ENERGIES
----------------

  NO   OCC          E(Eh)            E(eV)
   0   2.0000     -20.627158      -561.2935
   1   2.0000     -20.546104      -559.0879
   2   2.0000     -15.603126      -424.5826
   3   2.0000     -11.309951      -307.7594
   4   2.0000     -11.284609      -307.0698
   5   2.0000     -11.270899      -306.6967
   6   2.0000     -11.253956      -306.2357
   7   2.0000     -11.242793      -305.9320
   8   2.0000     -11.241006      -305.8833
   9   2.0000     -11.239680      -305.8472
  10   2.0000     -11.235392      -305.7305
  11   2.0000     -11.235161      -305.7243
  12   2.0000     -11.230472      -305.5967
  13   2.0000     -11.227686      -305.5209
  14   2.0000     -11.227093      -305.5047
  15   2.0000     -11.226957      -305.5010
  16   2.0000     -11.226136      -305.4787
  17   2.0000     -11.225980      -305.4744
  18   2.0000     -11.225734      -305.4678
  19   2.0000     -11.223827      -305.4159
  20   2.0000     -11.221021      -305.3395
  21   2.0000     -11.217770      -305.2510
  22   2.0000     -11.217155      -305.2343
  23   2.0000     -11.215815      -305.1978
  24   2.0000      -1.463987       -39.8371
  25   2.0000      -1.339720       -36.4556
  26   2.0000      -1.165144       -31.7052
  27   2.0000      -1.145500       -31.1706
  28   2.0000      -1.115825       -30.3631
  29   2.0000      -1.079261       -29.3682
  30   2.0000      -1.058399       -28.8005
  31   2.0000      -1.035389       -28.1744
  32   2.0000      -1.023523       -27.8515
  33   2.0000      -0.994436       -27.0600
  34   2.0000      -0.977852       -26.6087
  35   2.0000      -0.953370       -25.9425
  36   2.0000      -0.932415       -25.3723
  37   2.0000      -0.918609       -24.9966
  38   2.0000      -0.887836       -24.1593
  39   2.0000      -0.873535       -23.7701
  40   2.0000      -0.839268       -22.8376
  41   2.0000      -0.822257       -22.3747
  42   2.0000      -0.804257       -21.8850
  43   2.0000      -0.785903       -21.3855
  44   2.0000      -0.768333       -20.9074
  45   2.0000      -0.739188       -20.1143
  46   2.0000      -0.718539       -19.5525
  47   2.0000      -0.705456       -19.1964
  48   2.0000      -0.698804       -19.0154
  49   2.0000      -0.667037       -18.1510
  50   2.0000      -0.659794       -17.9539
  51   2.0000      -0.652386       -17.7523
  52   2.0000      -0.644805       -17.5460
  53   2.0000      -0.638604       -17.3773
  54   2.0000      -0.625042       -17.0083
  55   2.0000      -0.617245       -16.7961
  56   2.0000      -0.613564       -16.6959
  57   2.0000      -0.606120       -16.4934
  58   2.0000      -0.594153       -16.1677
  59   2.0000      -0.588756       -16.0209
  60   2.0000      -0.586372       -15.9560
  61   2.0000      -0.578564       -15.7435
  62   2.0000      -0.572484       -15.5781
  63   2.0000      -0.560070       -15.2403
  64   2.0000      -0.553859       -15.0713
  65   2.0000      -0.549795       -14.9607
  66   2.0000      -0.548564       -14.9272
  67   2.0000      -0.544123       -14.8063
  68   2.0000      -0.537296       -14.6206
  69   2.0000      -0.528581       -14.3834
  70   2.0000      -0.525945       -14.3117
  71   2.0000      -0.512776       -13.9533
  72   2.0000      -0.506254       -13.7759
  73   2.0000      -0.498516       -13.5653
  74   2.0000      -0.494988       -13.4693
  75   2.0000      -0.490381       -13.3440
  76   2.0000      -0.485854       -13.2208
  77   2.0000      -0.479029       -13.0350
  78   2.0000      -0.469643       -12.7796
  79   2.0000      -0.463010       -12.5991
  80   2.0000      -0.460408       -12.5283
  81   2.0000      -0.455329       -12.3901
  82   2.0000      -0.448867       -12.2143
  83   2.0000      -0.443721       -12.0743
  84   2.0000      -0.430573       -11.7165
  85   2.0000      -0.412719       -11.2306
  86   2.0000      -0.407974       -11.1015
  87   2.0000      -0.398108       -10.8331
  88   2.0000      -0.388386       -10.5685
  89   2.0000      -0.346113        -9.4182
  90   0.0000       0.121792         3.3141
  91   0.0000       0.156886         4.2691
  92   0.0000       0.165613         4.5066
  93   0.0000       0.170775         4.6470
  94   0.0000       0.178329         4.8526

MULLIKEN ATOMIC CHARGES
-----------------------
   0 C :    0.105652
   1 C :   -0.451039
   2 C :    0.256394
   3 C :   -0.349726
   4 C :    0.313751
   5 O :   -0.377400
   6 N :   -0.096080
   7 C :    0.004443
   8 C :    0.185161
   9 C :   -0.180944
  10 C :    0.067800
  11 C :    0.045498
  12 C :   -0.050043
  13 C :   -0.115827
  14 C :    0.042801
  15 C :    0.160097
  16 C :   -0.493854
  17 C :    0.082453
  18 C :   -0.051870
  19 C :    0.056050
  20 C :    0.093436
  21 C :   -0.007252
  22 C :    0.071896
  23 O :   -0.453336
  24 H :    0.029999
  25 H :    0.031393
  26 H :    0.034730
  27 H :    0.042415
  28 H :    0.038153
  29 H :    0.066042
  30 H :    0.057293
  31 H :    0.061327
  32 H :    0.034531
  33 H :    0.018598
  34 H :    0.028634
  35 H :    0.029444
  36 H :    0.025125
  37 H :    0.018276
  38 H :    0.015708
  39 H :    0.024500
  40 H :    0.027398
  41 H :    0.000119
  42 H :    0.015646
  43 H :    0.031103
  44 H :    0.028039
  45 H :    0.032252
  46 H :    0.047205
  47 H :    0.026097
  48 H :    0.024462
  49 H :    0.024651
  50 H :    0.041265
  51 H :    0.015832
  52 H :    0.032820
  53 H :    0.043663
  54 H :    0.195219
Sum of atomic charges:    0.0000000

LOEWDIN ATOMIC CHARGES
----------------------
   0 C :   -0.019716
   1 C :   -0.030097
   2 C :    0.003649
   3 C :   -0.128984
   4 C :    0.120959
   5 O :   -0.084775
   6 N :   -0.082118
   7 C :    0.005697
   8 C :   -0.004644
   9 C :   -0.016335
  10 C :   -0.012298
  11 C :   -0.013076
  12 C :   -0.018235
  13 C :   -0.013258
  14 C :   -0.007060
  15 C :   -0.000527
  16 C :   -0.056633
  17 C :   -0.022391
  18 C :   -0.017276
  19 C :   -0.008657
  20 C :   -0.007086
  21 C :    0.076309
  22 C :   -0.036607
  23 O :   -0.183538
  24 H :    0.014946
  25 H :    0.014327
  26 H :    0.016711
  27 H :    0.021914
  28 H :    0.023693
  29 H :    0.028683
  30 H :    0.036355
  31 H :    0.034607
  32 H :    0.015941
  33 H :    0.009035
  34 H :    0.015063
  35 H :    0.012438
  36 H :    0.010526
  37 H :    0.009750
  38 H :    0.004220
  39 H :    0.011923
  40 H :    0.012356
  41 H :    0.006794
  42 H :    0.008760
  43 H :    0.012698
  44 H :    0.013399
  45 H :    0.015195
  46 H :    0.020584
  47 H :    0.014336
  48 H :    0.007663
  49 H :    0.012775
  50 H :    0.023819
  51 H :    0.010771
  52 H :    0.019475
  53 H :    0.022826
  54 H :    0.075112

  Mayer bond orders larger than 0.100000
B(  0-C ,  1-C ) :   0.9857 B(  0-C , 24-H ) :   0.9830 B(  0-C , 25-H ) :   0.9786
B(  0-C , 26-H ) :   0.9852 B(  1-C ,  2-C ) :   0.9798 B(  1-C ,  9-C ) :   0.9802
B(  1-C , 13-C ) :   0.9837 B(  2-C ,  3-C ) :   0.9435 B(  2-C , 27-H ) :   0.9583
B(  2-C , 28-H ) :   0.9654 B(  3-C ,  4-C ) :   1.6897 B(  3-C ,  7-C ) :   1.2349
B(  4-C ,  5-O ) :   1.0640 B(  4-C , 29-H ) :   1.0015 B(  5-O ,  6-N ) :   0.9225
B(  6-N ,  7-C ) :   1.6966 B(  7-C ,  8-C ) :   0.9782 B(  8-C ,  9-C ) :   1.0454
B(  8-C , 30-H ) :   0.9627 B(  8-C , 31-H ) :   0.9628 B(  9-C , 10-C ) :   1.0143
B(  9-C , 32-H ) :   0.9561 B( 10-C , 11-C ) :   1.0491 B( 10-C , 33-H ) :   0.9595
B( 10-C , 34-H ) :   0.9735 B( 11-C , 12-C ) :   1.0285 B( 11-C , 35-H ) :   0.9665
B( 11-C , 36-H ) :   0.9695 B( 12-C , 13-C ) :   0.9951 B( 12-C , 18-C ) :   1.0171
B( 12-C , 37-H ) :   0.9440 B( 13-C , 14-C ) :   1.0431 B( 13-C , 38-H ) :   0.9334
B( 14-C , 15-C ) :   1.0748 B( 14-C , 39-H ) :   0.9763 B( 14-C , 40-H ) :   0.9505
B( 15-C , 16-C ) :   0.9555 B( 15-C , 41-H ) :   0.9624 B( 15-C , 42-H ) :   0.9716
B( 16-C , 17-C ) :   0.9781 B( 16-C , 18-C ) :   0.9614 B( 16-C , 21-C ) :   0.9424
B( 17-C , 43-H ) :   0.9823 B( 17-C , 44-H ) :   0.9862 B( 17-C , 45-H ) :   0.9776
B( 18-C , 19-C ) :   1.0433 B( 18-C , 46-H ) :   0.9393 B( 19-C , 20-C ) :   1.0836
B( 19-C , 47-H ) :   0.9596 B( 19-C , 48-H ) :   0.9630 B( 20-C , 21-C ) :   0.9941
B( 20-C , 49-H ) :   0.9740 B( 20-C , 50-H ) :   0.9447 B( 21-C , 22-C ) :   1.0407
B( 21-C , 23-O ) :   0.9029 B( 22-C , 51-H ) :   0.9796 B( 22-C , 52-H ) :   0.9686
B( 22-C , 53-H ) :   0.9819 B( 23-O , 54-H ) :   0.9708

FINAL SINGLE POINT ENERGY     -1016.620759749652

DIPOLE MOMENT
-------------
                                X             Y             Z
Electronic contribution:     27.15137       1.75638       3.42480
Nuclear contribution   :    -28.83557      -0.94296      -3.30183
                        -----------------------------------------
Total Dipole Moment    :     -1.68420       0.81342       0.12297
                        -----------------------------------------
Magnitude (a.u.)       :      1.87438
Magnitude (Debye)      :      4.76429

Rotational constants in cm-1:     0.022332     0.004024     0.003818
Rotational constants in MHz :   669.503080   120.641505   114.459368

                             ****ORCA TERMINATED NORMALLY****
TOTAL RUN TIME: 0 days 0 hours 0 minutes 58 seconds 650 msec
