                         Program Version 5.0.3 -  RELEASE  -
|  1> !RHF def2-SVP TightSCF PAL16
|  2> *xyz 0 1
|  3> Cl 5.549686700624916 2.546864703045638 1.7458045288470556
|  4> C 4.466369045739729 1.3762468049334713 1.1002159014747146
|  5> C 4.017329802180828 0.3310807285442097 1.9040199563888118
|  6> C 3.1370581367017136 -0.6185742489590539 1.380578041512228
|  7> C 2.7013360809889115 -0.5266762096133628 0.05123251439039243
|  8> C 1.7379916748582964 -1.545531506260642 -0.5127262935997027
|  9> C 0.3098060550949423 -0.999372384334034 -0.6994815552540072
| 10> C -0.5638119034529231 -2.0101300726574327 -1.4383890804921393
| 11> C -1.942416285819764 -1.4134932219861716 -1.725434459421653
| 12> C -2.4766708555021744 -0.487206399086425 -0.6137887538187454
| 13> C -2.4611829177747464 0.99892696387047 -1.016343618528647
| 14> C -3.08704105294204 1.8633605383351377 0.07734498734170156
| 15> C -2.4469972027379105 1.5877477613965922 1.434313438014907
| 16> C -2.4036580966994427 0.08800567422998416 1.7456817574623678
| 17> N -1.8109821403636432 -0.7203939961238112 0.6720793379296006
| 18> C -0.34377866595409273 -0.6200695092714364 0.6466266830670702
| 19> C 3.1633004630639574 0.5304266640626497 -0.7461130795300779
| 20> C 4.043631684428868 1.4798595965989239 -0.22283393426400766
| 21> H 4.3471584239894865 0.24923867553223167 2.9360812102666256
| 22> H 2.79217418450803 -1.4295032666005594 2.018905910242351
| 23> H 1.719304625795043 -2.4377936189705096 0.12665885230367455
| 24> H 2.1353683740033294 -1.8846539536256623 -1.4787450714497836
| 25> H 0.3650717619057592 -0.09663448406718983 -1.322946142621036
| 26> H -0.0986735835227894 -2.317159540515541 -2.382530477322646
| 27> H -0.6757272723798622 -2.9192683620931468 -0.8332292319518558
| 28> H -1.9054589611663928 -0.8712781086659137 -2.678488942101186
| 29> H -2.6421621865601415 -2.2457004685943547 -1.8754766873274555
| 30> H -3.534698302913814 -0.7612998948225196 -0.4898892637235178
| 31> H -1.4389339944411421 1.342875689912749 -1.210648175576899
| 32> H -3.024155506878652 1.1404697393572814 -1.946763520414789
| 33> H -4.162068987122336 1.6519892941189973 0.13484204014816933
| 34> H -2.98384505719274 2.923865458789354 -0.17767061782168939
| 35> H -3.0113292817078734 2.1076034826907812 2.21712301504404
| 36> H -1.4346960680186058 2.0079049877035353 1.4496815017171776
| 37> H -3.4278132384086715 -0.26680039918663784 1.9199315147161136
| 38> H -1.8706127165064168 -0.08136081532648881 2.689414430580457
| 39> H 0.031621557885353514 -1.2786798641324606 1.4397607178659941
| 40> H -0.00461978409172282 0.3913429487125571 0.9005042389624107
| 41> H 2.839812415459789 0.6196127305997376 -1.7811266892536255
| 42> H 4.394313074930308 2.29415788245906 -0.8508957938772949
| 43> *
| 44>
| 45>                          ****END OF INPUT****

CARTESIAN COORDINATES (ANGSTROEM)
---------------------------------
  Cl     5.549687    2.546865    1.745805
  C      4.466369    1.376247    1.100216
  C      4.017330    0.331081    1.904020
  C      3.137058   -0.618574    1.380578
  C      2.701336   -0.526676    0.051233
  C      1.737992   -1.545532   -0.512726
  C      0.309806   -0.999372   -0.699482
  C     -0.563812   -2.010130   -1.438389
  C     -1.942416   -1.413493   -1.725434
  C     -2.476671   -0.487206   -0.613789
  C     -2.461183    0.998927   -1.016344
  C     -3.087041    1.863361    0.077345
  C     -2.446997    1.587748    1.434313
  C     -2.403658    0.088006    1.745682
  N     -1.810982   -0.720394    0.672079
  C     -0.343779   -0.620070    0.646627
  C      3.163300    0.530427   -0.746113
  C      4.043632    1.479860   -0.222834
  H      4.347158    0.249239    2.936081
  H      2.792174   -1.429503    2.018906
  H      1.719305   -2.437794    0.126659
  H      2.135368   -1.884654   -1.478745
  H      0.365072   -0.096634   -1.322946
  H     -0.098674   -2.317160   -2.382530
  H     -0.675727   -2.919268   -0.833229
  H     -1.905459   -0.871278   -2.678489
  H     -2.642162   -2.245700   -1.875477
  H     -3.534698   -0.761300   -0.489889
  H     -1.438934    1.342876   -1.210648
  H     -3.024156    1.140470   -1.946764
  H     -4.162069    1.651989    0.134842
  H     -2.983845    2.923865   -0.177671
  H     -3.011329    2.107603    2.217123
  H     -1.434696    2.007905    1.449682
  H     -3.427813   -0.266800    1.919932
  H     -1.870613   -0.081361    2.689414
  H      0.031622   -1.278680    1.439761
  H     -0.004620    0.391343    0.900504
  H      2.839812    0.619613   -1.781127
  H      4.394313    2.294158   -0.850896

 Total Charge           Charge          ....    0
 Multiplicity           Mult            ....    1
 Number of Electrons    NEL             ....  142
 Basis Dimension        Dim             ....  366

ORBITAL ENERGIES
----------------

  NO   OCC          E(Eh)            E(eV)
   0   2.0000    -104.790671     -2851.4991
   1   2.0000     -15.534697      -422.7206
   2   2.0000     -11.296108      -307.3827
   3   2.0000     -11.252517      -306.1965
   4   2.0000     -11.251672      -306.1736
   5   2.0000     -11.250695      -306.1470
   6   2.0000     -11.250132      -306.1317
   7   2.0000     -11.248223      -306.0797
   8   2.0000     -11.247567      -306.0619
   9   2.0000     -11.247408      -306.0575
  10   2.0000     -11.247049      -306.0477
  11   2.0000     -11.236444      -305.7592
  12   2.0000     -11.232643      -305.6558
  13   2.0000     -11.220594      -305.3279
  14   2.0000     -11.219197      -305.2899
  15   2.0000     -11.219120      -305.2878
  16   2.0000     -11.216806      -305.2248
  17   2.0000     -11.216347      -305.2123
  18   2.0000     -10.554593      -287.2051
  19   2.0000      -8.029740      -218.5003
  20   2.0000      -8.026143      -218.4024
  21   2.0000      -8.026071      -218.4005
  22   2.0000      -1.220365       -33.2078
  23   2.0000      -1.182730       -32.1837
  24   2.0000      -1.123468       -30.5711
  25   2.0000      -1.084423       -29.5086
  26   2.0000      -1.054473       -28.6937
  27   2.0000      -1.036229       -28.1972
  28   2.0000      -1.017813       -27.6961
  29   2.0000      -0.994722       -27.0678
  30   2.0000      -0.964567       -26.2472
  31   2.0000      -0.912731       -24.8367
  32   2.0000      -0.856985       -23.3197
  33   2.0000      -0.842061       -22.9137
  34   2.0000      -0.840200       -22.8630
  35   2.0000      -0.821301       -22.3487
  36   2.0000      -0.789058       -21.4714
  37   2.0000      -0.764692       -20.8083
  38   2.0000      -0.724124       -19.7044
  39   2.0000      -0.685971       -18.6662
  40   2.0000      -0.668064       -18.1790
  41   2.0000      -0.659282       -17.9400
  42   2.0000      -0.641198       -17.4479
  43   2.0000      -0.633249       -17.2316
  44   2.0000      -0.631329       -17.1793
  45   2.0000      -0.613588       -16.6966
  46   2.0000      -0.602002       -16.3813
  47   2.0000      -0.598541       -16.2871
  48   2.0000      -0.591122       -16.0852
  49   2.0000      -0.572958       -15.5910
  50   2.0000      -0.564609       -15.3638
  51   2.0000      -0.557862       -15.1802
  52   2.0000      -0.548069       -14.9137
  53   2.0000      -0.539087       -14.6693
  54   2.0000      -0.529636       -14.4121
  55   2.0000      -0.524221       -14.2648
  56   2.0000      -0.517972       -14.0947
  57   2.0000      -0.508024       -13.8240
  58   2.0000      -0.500516       -13.6197
  59   2.0000      -0.487338       -13.2611
  60   2.0000      -0.477877       -13.0037
  61   2.0000      -0.469872       -12.7859
  62   2.0000      -0.458767       -12.4837
  63   2.0000      -0.457222       -12.4416
  64   2.0000      -0.455020       -12.3817
  65   2.0000      -0.448386       -12.2012
  66   2.0000      -0.435211       -11.8427
  67   2.0000      -0.431327       -11.7370
  68   2.0000      -0.350445        -9.5361
  69   2.0000      -0.333287        -9.0692
  70   2.0000      -0.323402        -8.8002
  71   0.0000       0.115827         3.1518
  72   0.0000       0.123707         3.3662
  73   0.0000       0.166179         4.5220
  74   0.0000       0.180023         4.8987
  75   0.0000       0.182940         4.9780

MULLIKEN ATOMIC CHARGES
-----------------------
   0 Cl:   -0.142602
   1 C :    0.025421
   2 C :   -0.003958
   3 C :   -0.023412
   4 C :   -0.157761
   5 C :    0.148363
   6 C :   -0.309867
   7 C :    0.027666
   8 C :    0.070528
   9 C :    0.016270
  10 C :   -0.009264
  11 C :   -0.027809
  12 C :   -0.066523
  13 C :    0.174840
  14 N :   -0.651789
  15 C :    0.312876
  16 C :   -0.019093
  17 C :   -0.003504
  18 H :    0.045177
  19 H :    0.039573
  20 H :    0.028453
  21 H :    0.036771
  22 H :    0.033230
  23 H :    0.023971
  24 H :    0.028782
  25 H :    0.022678
  26 H :    0.027809
  27 H :    0.023695
  28 H :    0.021562
  29 H :    0.026234
  30 H :    0.020610
  31 H :    0.031245
  32 H :    0.030103
  33 H :    0.028276
  34 H :    0.022905
  35 H :    0.028654
  36 H :    0.013674
  37 H :    0.021757
  38 H :    0.039218
  39 H :    0.045243
Sum of atomic charges:   -0.0000000

LOEWDIN ATOMIC CHARGES
----------------------
   0 Cl:    0.089264
   1 C :   -0.124053
   2 C :   -0.032555
   3 C :   -0.023109
   4 C :   -0.023836
   5 C :    0.003174
   6 C :   -0.031040
   7 C :   -0.010090
   8 C :   -0.012675
   9 C :    0.043514
  10 C :   -0.031863
  11 C :   -0.020338
  12 C :   -0.035865
  13 C :    0.064657
  14 N :   -0.198043
  15 C :    0.070908
  16 C :   -0.021368
  17 C :   -0.032255
  18 H :    0.031853
  19 H :    0.027729
  20 H :    0.018766
  21 H :    0.022169
  22 H :    0.008612
  23 H :    0.012151
  24 H :    0.014669
  25 H :    0.012363
  26 H :    0.016674
  27 H :    0.010008
  28 H :    0.007857
  29 H :    0.012544
  30 H :    0.009389
  31 H :    0.013392
  32 H :    0.015181
  33 H :    0.010132
  34 H :    0.008795
  35 H :    0.012086
  36 H :    0.005230
  37 H :   -0.003291
  38 H :    0.027433
  39 H :    0.031828

  Mayer bond orders larger than 0.100000
B(  0-Cl,  1-C ) :   0.9445 B(  1-C ,  2-C ) :   1.4129 B(  1-C , 17-C ) :   1.4025
B(  2-C ,  3-C ) :   1.4205 B(  2-C , 18-H ) :   1.0019 B(  3-C ,  4-C ) :   1.4222
B(  3-C , 19-H ) :   1.0001 B(  4-C ,  5-C ) :   1.0013 B(  4-C , 16-C ) :   1.3999
B(  5-C ,  6-C ) :   1.0268 B(  5-C , 20-H ) :   0.9695 B(  5-C , 21-H ) :   0.9711
B(  6-C ,  7-C ) :   1.0161 B(  6-C , 15-C ) :   0.9774 B(  6-C , 22-H ) :   0.9593
B(  7-C ,  8-C ) :   1.0516 B(  7-C , 23-H ) :   0.9771 B(  7-C , 24-H ) :   0.9592
B(  8-C ,  9-C ) :   1.0108 B(  8-C , 25-H ) :   0.9755 B(  8-C , 26-H ) :   0.9753
B(  9-C , 10-C ) :   0.9897 B(  9-C , 14-N ) :   0.9412 B(  9-C , 27-H ) :   0.9675
B( 10-C , 11-C ) :   1.0326 B( 10-C , 28-H ) :   0.9638 B( 10-C , 29-H ) :   0.9685
B( 11-C , 12-C ) :   1.0221 B( 11-C , 30-H ) :   0.9733 B( 11-C , 31-H ) :   0.9800
B( 12-C , 13-C ) :   1.0222 B( 12-C , 32-H ) :   0.9742 B( 12-C , 33-H ) :   0.9682
B( 13-C , 14-N ) :   0.9515 B( 13-C , 34-H ) :   0.9774 B( 13-C , 35-H ) :   0.9814
B( 14-N , 15-C ) :   0.9129 B( 15-C , 36-H ) :   0.9695 B( 15-C , 37-H ) :   0.9722
B( 16-C , 17-C ) :   1.4354 B( 16-C , 38-H ) :   0.9994 B( 17-C , 39-H ) :   1.0022

FINAL SINGLE POINT ENERGY     -1132.008217007822

DIPOLE MOMENT
-------------
                                X             Y             Z
Electronic contribution:     36.36527      10.67844       9.37787
Nuclear contribution   :    -36.91788     -10.93005      -9.79010
                        -----------------------------------------
Total Dipole Moment    :     -0.55261      -0.25161      -0.41224
                        -----------------------------------------
Magnitude (a.u.)       :      0.73391
Magnitude (Debye)      :      1.86544

Rotational constants in cm-1:     0.022499     0.005844     0.005243
Rotational constants in MHz :   674.502283   175.209408   157.194506

                             ****ORCA TERMINATED NORMALLY****
TOTAL RUN TIME: 0 days 0 hours 0 minutes 23 seconds 176 msec
