                         Program Version 5.0.3 -  RELEASE  -
|  1> !RHF def2-SVP TightSCF PAL16
|  2> *xyz 0 1
|  3> C 4.650616714854597 1.0610027722245998 1.0118665795722217
|  4> O 4.548338188482282 0.010181665999837596 0.05873675182669983
|  5> C 3.3082591519004887 -0.538970102526622 -0.142835211174111
|  6> C 3.341561647768093 -1.7793685632446237 -0.7893202968837945
|  7> O 4.540497852130608 -2.33601710673082 -1.1479917256531302
|  8> C 2.183149106750075 -2.4778102006908416 -1.1015283844320405
|  9> C 0.9399927574723406 -1.9443113089770747 -0.7453196890870354
| 10> C 0.8669831094210485 -0.7170310927558597 -0.0737197145278561
| 11> C 2.0578171925872644 -0.00047730824131535585 0.17788490391204928
| 12> O 1.9621487362074772 1.2589675119052746 0.7101264736540399
| 13> C -0.4594311782049088 -0.18782277116480536 0.391065629542654
| 14> O -0.7529262417610766 0.9894541446803661 -0.36593442845396523
| 15> C -1.871084760289754 1.7372265849569068 0.17120589993409344
| 16> C -2.4169884171417944 2.584521999983444 -0.986835048417144
| 17> O -3.4645762894413035 3.437197576022294 -0.5512229925926307
| 18> C -2.9644283777061737 0.8340677392496806 0.7877471784682926
| 19> O -2.685072141703158 0.619491063742004 2.185661930800462
| 20> C -2.95091919032299 -0.5324200354864637 0.10651640251486938
| 21> O -3.9775381040463413 -1.3551928377665303 0.6848320935745923
| 22> C -1.5840607712979438 -1.2218952801251295 0.2799124968503442
| 23> O -1.463997764031869 -2.1097453701648217 -0.8541134663022889
| 24> C -0.2780333626047956 -2.677679895914593 -1.1666240262735443
| 25> O -0.21857197455480354 -3.708720274238957 -1.820539108998275
| 26> H 4.151484348341136 0.8093394563097751 1.9535337786770675
| 27> H 5.713389105506355 1.198954039419439 1.235093823933283
| 28> H 4.284264394285732 2.002681063603132 0.5926024827944327
| 29> H 5.216678958316522 -1.6864850157271967 -0.8703967386428061
| 30> H 2.255904076173513 -3.4267526387226703 -1.62875035435384
| 31> H 1.1372687662966205 1.6599715451578496 0.3723330051893803
| 32> H -0.34639876151924104 0.09880308320494238 1.4455810345099105
| 33> H -1.4781890299397726 2.4061470460976615 0.9471191746872051
| 34> H -1.6145620271111578 3.200576708347317 -1.4082238698640013
| 35> H -2.7913473808076428 1.94483622905368 -1.7936729841908128
| 36> H -3.7171330566798 3.9944580291969514 -1.3088909323488425
| 37> H -3.9554915311045544 1.2975204423380111 0.7498937291916706
| 38> H -3.4086089076271917 0.03829689726780517 2.499429048256598
| 39> H -3.202175105282435 -0.4176282255953914 -0.955112488121654
| 40> H -3.9727770434365266 -2.194416856846435 0.18452112311382002
| 41> H -1.5840426898803133 -1.8709507138413197 1.1653679193153317
| 42> *
| 43>
| 44>                          ****END OF INPUT****

CARTESIAN COORDINATES (ANGSTROEM)
---------------------------------
  C      4.650617    1.061003    1.011867
  O      4.548338    0.010182    0.058737
  C      3.308259   -0.538970   -0.142835
  C      3.341562   -1.779369   -0.789320
  O      4.540498   -2.336017   -1.147992
  C      2.183149   -2.477810   -1.101528
  C      0.939993   -1.944311   -0.745320
  C      0.866983   -0.717031   -0.073720
  C      2.057817   -0.000477    0.177885
  O      1.962149    1.258968    0.710126
  C     -0.459431   -0.187823    0.391066
  O     -0.752926    0.989454   -0.365934
  C     -1.871085    1.737227    0.171206
  C     -2.416988    2.584522   -0.986835
  O     -3.464576    3.437198   -0.551223
  C     -2.964428    0.834068    0.787747
  O     -2.685072    0.619491    2.185662
  C     -2.950919   -0.532420    0.106516
  O     -3.977538   -1.355193    0.684832
  C     -1.584061   -1.221895    0.279912
  O     -1.463998   -2.109745   -0.854113
  C     -0.278033   -2.677680   -1.166624
  O     -0.218572   -3.708720   -1.820539
  H      4.151484    0.809339    1.953534
  H      5.713389    1.198954    1.235094
  H      4.284264    2.002681    0.592602
  H      5.216679   -1.686485   -0.870397
  H      2.255904   -3.426753   -1.628750
  H      1.137269    1.659972    0.372333
  H     -0.346399    0.098803    1.445581
  H     -1.478189    2.406147    0.947119
  H     -1.614562    3.200577   -1.408224
  H     -2.791347    1.944836   -1.793673
  H     -3.717133    3.994458   -1.308891
  H     -3.955492    1.297520    0.749894
  H     -3.408609    0.038297    2.499429
  H     -3.202175   -0.417628   -0.955112
  H     -3.972777   -2.194417    0.184521
  H     -1.584043   -1.870951    1.165368

 Total Charge           Charge          ....    0
 Multiplicity           Mult            ....    1
 Number of Electrons    NEL             ....  172
 Basis Dimension        Dim             ....  402

ORBITAL ENERGIES
----------------

  NO   OCC          E(Eh)            E(eV)
   0   2.0000     -20.606174      -560.7225
   1   2.0000     -20.602277      -560.6165
   2   2.0000     -20.594941      -560.4168
   3   2.0000     -20.593172      -560.3687
   4   2.0000     -20.580975      -560.0368
   5   2.0000     -20.575655      -559.8920
   6   2.0000     -20.571343      -559.7747
   7   2.0000     -20.566641      -559.6467
   8   2.0000     -20.537751      -558.8606
   9   2.0000     -11.395286      -310.0815
  10   2.0000     -11.327841      -308.2462
  11   2.0000     -11.324207      -308.1473
  12   2.0000     -11.322616      -308.1040
  13   2.0000     -11.320841      -308.0558
  14   2.0000     -11.316874      -307.9478
  15   2.0000     -11.314395      -307.8803
  16   2.0000     -11.311497      -307.8015
  17   2.0000     -11.308118      -307.7095
  18   2.0000     -11.304293      -307.6054
  19   2.0000     -11.297755      -307.4275
  20   2.0000     -11.266880      -306.5874
  21   2.0000     -11.265607      -306.5527
  22   2.0000     -11.246183      -306.0242
  23   2.0000      -1.448458       -39.4145
  24   2.0000      -1.425119       -38.7795
  25   2.0000      -1.405886       -38.2561
  26   2.0000      -1.392305       -37.8865
  27   2.0000      -1.374717       -37.4079
  28   2.0000      -1.370966       -37.3059
  29   2.0000      -1.360134       -37.0111
  30   2.0000      -1.345786       -36.6207
  31   2.0000      -1.338807       -36.4308
  32   2.0000      -1.163461       -31.6594
  33   2.0000      -1.083399       -29.4808
  34   2.0000      -1.069765       -29.1098
  35   2.0000      -1.043689       -28.4002
  36   2.0000      -1.012389       -27.5485
  37   2.0000      -0.957963       -26.0675
  38   2.0000      -0.950096       -25.8534
  39   2.0000      -0.913122       -24.8473
  40   2.0000      -0.877868       -23.8880
  41   2.0000      -0.868555       -23.6346
  42   2.0000      -0.839094       -22.8329
  43   2.0000      -0.799100       -21.7446
  44   2.0000      -0.776904       -21.1406
  45   2.0000      -0.761735       -20.7279
  46   2.0000      -0.748923       -20.3792
  47   2.0000      -0.740891       -20.1607
  48   2.0000      -0.726968       -19.7818
  49   2.0000      -0.723031       -19.6747
  50   2.0000      -0.711597       -19.3635
  51   2.0000      -0.705151       -19.1881
  52   2.0000      -0.685296       -18.6479
  53   2.0000      -0.683262       -18.5925
  54   2.0000      -0.675921       -18.3927
  55   2.0000      -0.662495       -18.0274
  56   2.0000      -0.656063       -17.8524
  57   2.0000      -0.647579       -17.6215
  58   2.0000      -0.636732       -17.3264
  59   2.0000      -0.633997       -17.2519
  60   2.0000      -0.625657       -17.0250
  61   2.0000      -0.618217       -16.8225
  62   2.0000      -0.616903       -16.7868
  63   2.0000      -0.602234       -16.3876
  64   2.0000      -0.592798       -16.1309
  65   2.0000      -0.589128       -16.0310
  66   2.0000      -0.580669       -15.8008
  67   2.0000      -0.572245       -15.5716
  68   2.0000      -0.561175       -15.2703
  69   2.0000      -0.552984       -15.0475
  70   2.0000      -0.551055       -14.9950
  71   2.0000      -0.539066       -14.6687
  72   2.0000      -0.526205       -14.3188
  73   2.0000      -0.519614       -14.1394
  74   2.0000      -0.514052       -13.9881
  75   2.0000      -0.505779       -13.7630
  76   2.0000      -0.494916       -13.4673
  77   2.0000      -0.483128       -13.1466
  78   2.0000      -0.477900       -13.0043
  79   2.0000      -0.471178       -12.8214
  80   2.0000      -0.465117       -12.6565
  81   2.0000      -0.457765       -12.4564
  82   2.0000      -0.444694       -12.1007
  83   2.0000      -0.440436       -11.9849
  84   2.0000      -0.333616        -9.0782
  85   2.0000      -0.325765        -8.8645
  86   0.0000       0.078597         2.1387
  87   0.0000       0.122781         3.3410
  88   0.0000       0.154497         4.2041
  89   0.0000       0.167333         4.5534
  90   0.0000       0.172959         4.7065

MULLIKEN ATOMIC CHARGES
-----------------------
   0 C :    0.252109
   1 O :   -0.601609
   2 C :    0.214307
   3 C :    0.253707
   4 O :   -0.369745
   5 C :   -0.043539
   6 C :   -0.249080
   7 C :   -0.107347
   8 C :    0.242030
   9 O :   -0.428220
  10 C :    0.310206
  11 O :   -0.648890
  12 C :    0.196657
  13 C :    0.325013
  14 O :   -0.460207
  15 C :    0.126527
  16 O :   -0.473094
  17 C :    0.255518
  18 O :   -0.474664
  19 C :    0.265724
  20 O :   -0.569906
  21 C :    0.656665
  22 O :   -0.378261
  23 H :    0.043087
  24 H :    0.039837
  25 H :    0.050015
  26 H :    0.227442
  27 H :    0.074454
  28 H :    0.243658
  29 H :    0.081688
  30 H :    0.057402
  31 H :    0.030602
  32 H :    0.017281
  33 H :    0.207558
  34 H :    0.077936
  35 H :    0.219020
  36 H :    0.054635
  37 H :    0.219535
  38 H :    0.061951
Sum of atomic charges:    0.0000000

LOEWDIN ATOMIC CHARGES
----------------------
   0 C :    0.139013
   1 O :   -0.204377
   2 C :    0.040016
   3 C :    0.091358
   4 O :   -0.121205
   5 C :   -0.015499
   6 C :   -0.086250
   7 C :   -0.072899
   8 C :    0.072357
   9 O :   -0.126430
  10 C :    0.102316
  11 O :   -0.259336
  12 C :    0.108965
  13 C :    0.123059
  14 O :   -0.201510
  15 C :    0.096488
  16 O :   -0.204525
  17 C :    0.101042
  18 O :   -0.199945
  19 C :    0.120209
  20 O :   -0.191359
  21 C :    0.222390
  22 O :   -0.255239
  23 H :    0.014717
  24 H :    0.015280
  25 H :    0.014704
  26 H :    0.101442
  27 H :    0.051993
  28 H :    0.101754
  29 H :    0.027708
  30 H :    0.019129
  31 H :    0.008321
  32 H :    0.002509
  33 H :    0.094959
  34 H :    0.027647
  35 H :    0.094817
  36 H :    0.019948
  37 H :    0.099511
  38 H :    0.026922

  Mayer bond orders larger than 0.100000
B(  0-C ,  1-O ) :   0.8282 B(  0-C , 23-H ) :   0.9885 B(  0-C , 24-H ) :   0.9912
B(  0-C , 25-H ) :   0.9910 B(  1-O ,  2-C ) :   0.9889 B(  2-C ,  3-C ) :   1.3247
B(  2-C ,  8-C ) :   1.3599 B(  3-C ,  4-O ) :   1.1160 B(  3-C ,  5-C ) :   1.4158
B(  4-O , 26-H ) :   0.9417 B(  5-C ,  6-C ) :   1.3837 B(  5-C , 27-H ) :   1.0249
B(  6-C ,  7-C ) :   1.4206 B(  6-C , 21-C ) :   0.9621 B(  7-C ,  8-C ) :   1.3995
B(  7-C , 10-C ) :   0.9325 B(  8-C ,  9-O ) :   1.0602 B(  9-O , 28-H ) :   0.9288
B( 10-C , 11-O ) :   0.8697 B( 10-C , 19-C ) :   1.0227 B( 10-C , 29-H ) :   0.9709
B( 11-O , 12-C ) :   0.8332 B( 12-C , 13-C ) :   1.0224 B( 12-C , 15-C ) :   0.9858
B( 12-C , 30-H ) :   0.9640 B( 13-C , 14-O ) :   0.9517 B( 13-C , 31-H ) :   0.9751
B( 13-C , 32-H ) :   0.9673 B( 14-O , 33-H ) :   0.9643 B( 15-C , 16-O ) :   0.9005
B( 15-C , 17-C ) :   0.9988 B( 15-C , 34-H ) :   0.9676 B( 16-O , 35-H ) :   0.9553
B( 17-C , 18-O ) :   0.9402 B( 17-C , 19-C ) :   0.9891 B( 17-C , 36-H ) :   0.9660
B( 18-O , 37-H ) :   0.9599 B( 19-C , 20-O ) :   0.7930 B( 19-C , 38-H ) :   0.9515
B( 20-O , 21-C ) :   1.0187 B( 21-C , 22-O ) :   2.0627

FINAL SINGLE POINT ENERGY     -1212.263098854959

DIPOLE MOMENT
-------------
                                X             Y             Z
Electronic contribution:      4.21625     -11.54100      -4.26099
Nuclear contribution   :     -4.53224      13.63238       4.78434
                        -----------------------------------------
Total Dipole Moment    :     -0.31600       2.09138       0.52335
                        -----------------------------------------
Magnitude (a.u.)       :      2.17891
Magnitude (Debye)      :      5.53834

Rotational constants in cm-1:     0.013627     0.005855     0.004584
Rotational constants in MHz :   408.534768   175.530005   137.436574

                             ****ORCA TERMINATED NORMALLY****
TOTAL RUN TIME: 0 days 0 hours 0 minutes 26 seconds 463 msec
