                         Program Version 5.0.3 -  RELEASE  -
|  1> !RHF def2-SVP TightSCF PAL16
|  2> *xyz 0 1
|  3> C -0.5051480096847022 -2.283589644086047 -0.1270065806481754
|  4> N -1.1460949885021643 -0.9732412614512728 -0.09951937381762012
|  5> C -2.4996242935869466 -0.937182242380085 -0.43893090638133486
|  6> O -3.185357409730082 -1.94634221323232 -0.5840243954753764
|  7> C -3.1116946643544052 0.43139240591057165 -0.6697155954311126
|  8> C -2.729972298837197 1.3989245800566423 0.42455851955656265
|  9> S -1.006335791076284 1.8065100546440291 0.324906198142278
| 10> O -0.5746128052037347 2.057785833956423 1.6874231400473685
| 11> O -0.8715365082861193 2.8291550504517473 -0.697957997352146
| 12> C -0.3186118856059331 0.23436711669910057 -0.33417839424062545
| 13> C 1.1373834467139696 0.14413534297217434 0.10162384451294056
| 14> C 1.501838717763411 -0.11185060880560586 1.4358305340747233
| 15> C 2.8460897255573814 -0.19540684830771907 1.8082239357996444
| 16> C 3.841729325406946 -0.025550457180970543 0.8510008567340991
| 17> Cl 5.496493493047807 -0.13233326098336975 1.3075472367133505
| 18> C 3.504333646947733 0.2292469192515984 -0.4754853049963153
| 19> C 2.1599974044166466 0.31427681168574606 -0.8489447889917134
| 20> H -0.045080074856266514 -2.4306138515330358 -1.1088936707116872
| 21> H 0.24895019527447812 -2.356899063812095 0.6581546764420952
| 22> H -1.2285163785614255 -3.086831463896343 0.040938366073309945
| 23> H -4.20140130813494 0.3121685779366045 -0.672381910567798
| 24> H -2.814589850339514 0.7878855723296329 -1.661923677298566
| 25> H -3.2927794598361757 2.333562968362762 0.3442155645855958
| 26> H -2.9094055752949877 0.9641226060585075 1.4135676865288982
| 27> H -0.34759993895238217 0.3759998684492697 -1.4241254617032255
| 28> H 0.7391967702660975 -0.2408895598821841 2.203424742894022
| 29> H 3.1063981078052123 -0.38672141785539854 2.846178141947734
| 30> H 4.282086343168436 0.36696354527290653 -1.2225453013884051
| 31> H 1.92386406447461 0.520954639368713 -1.8918319866296938
| 32> *
| 33>
| 34>                          ****END OF INPUT****

CARTESIAN COORDINATES (ANGSTROEM)
---------------------------------
  C     -0.505148   -2.283590   -0.127007
  N     -1.146095   -0.973241   -0.099519
  C     -2.499624   -0.937182   -0.438931
  O     -3.185357   -1.946342   -0.584024
  C     -3.111695    0.431392   -0.669716
  C     -2.729972    1.398925    0.424559
  S     -1.006336    1.806510    0.324906
  O     -0.574613    2.057786    1.687423
  O     -0.871537    2.829155   -0.697958
  C     -0.318612    0.234367   -0.334178
  C      1.137383    0.144135    0.101624
  C      1.501839   -0.111851    1.435831
  C      2.846090   -0.195407    1.808224
  C      3.841729   -0.025550    0.851001
  Cl     5.496493   -0.132333    1.307547
  C      3.504334    0.229247   -0.475485
  C      2.159997    0.314277   -0.848945
  H     -0.045080   -2.430614   -1.108894
  H      0.248950   -2.356899    0.658155
  H     -1.228516   -3.086831    0.040938
  H     -4.201401    0.312169   -0.672382
  H     -2.814590    0.787886   -1.661924
  H     -3.292779    2.333563    0.344216
  H     -2.909406    0.964123    1.413568
  H     -0.347600    0.376000   -1.424125
  H      0.739197   -0.240890    2.203425
  H      3.106398   -0.386721    2.846178
  H      4.282086    0.366964   -1.222545
  H      1.923864    0.520955   -1.891832

 Total Charge           Charge          ....    0
 Multiplicity           Mult            ....    1
 Number of Electrons    NEL             ....  142
 Basis Dimension        Dim             ....  306

ORBITAL ENERGIES
----------------

  NO   OCC          E(Eh)            E(eV)
   0   2.0000    -104.808051     -2851.9721
   1   2.0000     -92.169840     -2508.0688
   2   2.0000     -20.548341      -559.1488
   3   2.0000     -20.547477      -559.1253
   4   2.0000     -20.542221      -558.9823
   5   2.0000     -15.625607      -425.1944
   6   2.0000     -11.382457      -309.7324
   7   2.0000     -11.348396      -308.8056
   8   2.0000     -11.320948      -308.0587
   9   2.0000     -11.291050      -307.2451
  10   2.0000     -11.285450      -307.0927
  11   2.0000     -11.282961      -307.0250
  12   2.0000     -11.280832      -306.9670
  13   2.0000     -11.279554      -306.9323
  14   2.0000     -11.275662      -306.8264
  15   2.0000     -11.269233      -306.6514
  16   2.0000     -11.268516      -306.6319
  17   2.0000     -10.571922      -287.6766
  18   2.0000      -9.176610      -249.7082
  19   2.0000      -8.047045      -218.9712
  20   2.0000      -8.043370      -218.8712
  21   2.0000      -8.043345      -218.8705
  22   2.0000      -6.867192      -186.8658
  23   2.0000      -6.866239      -186.8399
  24   2.0000      -6.865879      -186.8301
  25   2.0000      -1.457180       -39.6519
  26   2.0000      -1.388014       -37.7698
  27   2.0000      -1.335237       -36.3337
  28   2.0000      -1.269262       -34.5384
  29   2.0000      -1.202425       -32.7196
  30   2.0000      -1.140387       -31.0315
  31   2.0000      -1.119435       -30.4614
  32   2.0000      -1.058900       -28.8141
  33   2.0000      -1.038717       -28.2649
  34   2.0000      -0.983257       -26.7558
  35   2.0000      -0.980183       -26.6721
  36   2.0000      -0.915850       -24.9215
  37   2.0000      -0.863790       -23.5049
  38   2.0000      -0.849056       -23.1040
  39   2.0000      -0.820653       -22.3311
  40   2.0000      -0.755932       -20.5700
  41   2.0000      -0.732485       -19.9319
  42   2.0000      -0.727861       -19.8061
  43   2.0000      -0.716150       -19.4874
  44   2.0000      -0.695262       -18.9190
  45   2.0000      -0.670975       -18.2582
  46   2.0000      -0.663565       -18.0565
  47   2.0000      -0.659059       -17.9339
  48   2.0000      -0.648131       -17.6365
  49   2.0000      -0.633768       -17.2457
  50   2.0000      -0.622492       -16.9389
  51   2.0000      -0.614787       -16.7292
  52   2.0000      -0.607033       -16.5182
  53   2.0000      -0.599312       -16.3081
  54   2.0000      -0.597097       -16.2478
  55   2.0000      -0.576648       -15.6914
  56   2.0000      -0.567186       -15.4339
  57   2.0000      -0.555263       -15.1095
  58   2.0000      -0.540569       -14.7096
  59   2.0000      -0.535355       -14.5677
  60   2.0000      -0.529453       -14.4071
  61   2.0000      -0.507560       -13.8114
  62   2.0000      -0.504323       -13.7233
  63   2.0000      -0.480062       -13.0632
  64   2.0000      -0.477821       -13.0022
  65   2.0000      -0.464460       -12.6386
  66   2.0000      -0.450915       -12.2700
  67   2.0000      -0.445706       -12.1283
  68   2.0000      -0.404051       -10.9948
  69   2.0000      -0.367468        -9.9993
  70   2.0000      -0.352892        -9.6027
  71   0.0000       0.084023         2.2864
  72   0.0000       0.101464         2.7610
  73   0.0000       0.142387         3.8745
  74   0.0000       0.150167         4.0863
  75   0.0000       0.167932         4.5697

MULLIKEN ATOMIC CHARGES
-----------------------
   0 C :    0.177976
   1 N :   -0.662862
   2 C :    0.444511
   3 O :   -0.423576
   4 C :   -0.104266
   5 C :   -0.048722
   6 S :    0.997532
   7 O :   -0.623313
   8 O :   -0.633290
   9 C :    0.212308
  10 C :   -0.240349
  11 C :    0.078119
  12 C :   -0.024901
  13 C :    0.050358
  14 Cl:   -0.120502
  15 C :   -0.019194
  16 C :    0.030632
  17 H :    0.034785
  18 H :    0.051769
  19 H :    0.093201
  20 H :    0.097149
  21 H :    0.097353
  22 H :    0.114873
  23 H :    0.101641
  24 H :    0.084298
  25 H :    0.067632
  26 H :    0.057185
  27 H :    0.055300
  28 H :    0.054355
Sum of atomic charges:   -0.0000000

LOEWDIN ATOMIC CHARGES
----------------------
   0 C :    0.078584
   1 N :   -0.167043
   2 C :    0.182321
   3 O :   -0.289770
   4 C :   -0.050418
   5 C :   -0.124751
   6 S :    1.297125
   7 O :   -0.593473
   8 O :   -0.604487
   9 C :   -0.031395
  10 C :   -0.082800
  11 C :    0.024054
  12 C :   -0.037860
  13 C :   -0.095900
  14 Cl:    0.107370
  15 C :   -0.041170
  16 C :    0.007712
  17 H :    0.012111
  18 H :    0.019638
  19 H :    0.039252
  20 H :    0.052688
  21 H :    0.042528
  22 H :    0.045769
  23 H :    0.038491
  24 H :    0.023898
  25 H :    0.038107
  26 H :    0.037792
  27 H :    0.036755
  28 H :    0.034873

  Mayer bond orders larger than 0.100000
B(  0-C ,  1-N ) :   0.8649 B(  0-C , 17-H ) :   0.9936 B(  0-C , 18-H ) :   0.9854
B(  0-C , 19-H ) :   0.9800 B(  1-N ,  2-C ) :   1.0451 B(  1-N ,  9-C ) :   0.8864
B(  2-C ,  3-O ) :   1.9848 B(  2-C ,  4-C ) :   0.9685 B(  4-C ,  5-C ) :   0.9908
B(  4-C , 20-H ) :   0.9607 B(  4-C , 21-H ) :   0.9561 B(  5-C ,  6-S ) :   0.8973
B(  5-C , 22-H ) :   0.9559 B(  5-C , 23-H ) :   0.9530 B(  6-S ,  7-O ) :   1.6033
B(  6-S ,  8-O ) :   1.5915 B(  6-S ,  9-C ) :   0.8535 B(  9-C , 10-C ) :   0.9973
B(  9-C , 24-H ) :   0.9556 B( 10-C , 11-C ) :   1.3676 B( 10-C , 16-C ) :   1.4218
B( 11-C , 12-C ) :   1.4496 B( 11-C , 25-H ) :   0.9901 B( 12-C , 13-C ) :   1.3905
B( 12-C , 26-H ) :   1.0038 B( 13-C , 14-Cl) :   0.9648 B( 13-C , 15-C ) :   1.4091
B( 15-C , 16-C ) :   1.4333 B( 15-C , 27-H ) :   1.0010 B( 16-C , 28-H ) :   0.9937

FINAL SINGLE POINT ENERGY     -1558.701309962838

DIPOLE MOMENT
-------------
                                X             Y             Z
Electronic contribution:     16.55719       4.44106       4.71265
Nuclear contribution   :    -16.68570      -5.19308      -5.18618
                        -----------------------------------------
Total Dipole Moment    :     -0.12851      -0.75201      -0.47353
                        -----------------------------------------
Magnitude (a.u.)       :      0.89793
Magnitude (Debye)      :      2.28235

Rotational constants in cm-1:     0.026231     0.007217     0.006310
Rotational constants in MHz :   786.397013   216.359989   189.174985

                             ****ORCA TERMINATED NORMALLY****
TOTAL RUN TIME: 0 days 0 hours 0 minutes 13 seconds 938 msec
