                         Program Version 5.0.3 -  RELEASE  -
|  1> !RHF def2-SVP TightSCF PAL16
|  2> *xyz 0 1
|  3> C 5.360873558756679 1.6024079876438522 0.4717955062054175
|  4> O 4.724796713015361 0.9795893820912447 -0.63961428295927
|  5> C 3.3426293759036803 0.9183222926439486 -0.5710499426619873
|  6> C 2.7289603815970476 -0.15457602260329956 -1.0838403500982803
|  7> C 1.2379254870619132 -0.36680171449217425 -1.0852247369773873
|  8> C 0.8139892493646532 -1.8537281600042923 -0.9700104522457925
|  9> C -0.6362436652649948 -1.905304168676021 -1.5097191070057816
| 10> C -1.546833665682993 -0.8386470980088909 -0.9432617594998925
| 11> C -2.927566188730607 -0.9753428204440985 -1.180513796048703
| 12> C -3.8407781842567434 -0.042323196333600696 -0.6926037638101059
| 13> C -3.382787025483064 1.035816942282268 0.05162573058694836
| 14> O -4.164485241398985 2.0119065419380657 0.6202279023204278
| 15> C -5.56749489670055 1.9139913872485348 0.402455804980438
| 16> C -2.0010007550838527 1.178158661627593 0.28071159072293234
| 17> O -1.6066034620035767 2.224817973038975 1.073911271854466
| 18> C -1.0484054094488435 0.27996833247583786 -0.23374730711311667
| 19> C 0.4782522249849949 0.41642482795214636 0.02421785773289329
| 20> C 0.7428922384006043 -0.19817974568947164 1.4336773179242395
| 21> C 1.4977454571380966 -1.5269585072998186 1.402790959509964
| 22> N 1.072115920983505 -2.455079801083515 0.35972955614878915
| 23> C 0.09684597808334322 -3.4230908083154366 0.8376803681623802
| 24> C 0.9820120284588898 1.8781963520683531 -0.03482681869235507
| 25> C 2.4949929853637975 2.0286973235664103 -0.01780867025972932
| 26> O 3.003705442722838 3.0724574914409795 0.3940220664779483
| 27> H 6.393424777543825 1.2415079025145022 0.5079070333878752
| 28> H 5.398566585959713 2.686580012809594 0.33424875573672497
| 29> H 4.881593917862657 1.3383112291651889 1.4208361530974043
| 30> H 3.3413366759388583 -0.931889149466053 -1.5363058952853732
| 31> H 0.9162268559267072 0.0017987489689426418 -2.0729430392469914
| 32> H 1.4151224555284023 -2.447462622960192 -1.6722401288559992
| 33> H -1.0801241248435478 -2.897209742850929 -1.374480226893728
| 34> H -0.6001364168993891 -1.7476419584285943 -2.597408579778341
| 35> H -3.2993274708807476 -1.8258402784419865 -1.7500315714757269
| 36> H -4.893452754603457 -0.1977321339112517 -0.9000312607360299
| 37> H -5.807382332600345 1.9837078465537727 -0.6636585822735998
| 38> H -5.971393030588799 0.9957032859258267 0.8412661919807846
| 39> H -6.0430364485156485 2.7607870736718962 0.9066218576945528
| 40> H -2.430610691187106 2.6953679523868828 1.3092587760808025
| 41> H 1.3225741603989296 0.4966539493006455 2.055085927664561
| 42> H -0.19723135866994343 -0.35113835835788626 1.9806086904572984
| 43> H 2.5682436934814783 -1.3309212595053392 1.2708877881093934
| 44> H 1.443892326650071 -1.9913486087995043 2.3964388990890777
| 45> H -0.07123481175658597 -4.21011462047403 0.0948593071012396
| 46> H 0.46937631340664476 -3.9382213363640957 1.730867621591171
| 47> H -0.8605822933485942 -2.9587606930412216 1.0954488465486643
| 48> H 0.6152479229358127 2.3804283157063786 -0.9388422861980974
| 49> H 0.6333675005239331 2.4467109924828425 0.8328477293061797
| 50> *
| 51>
| 52>                          ****END OF INPUT****

CARTESIAN COORDINATES (ANGSTROEM)
---------------------------------
  C      5.360874    1.602408    0.471796
  O      4.724797    0.979589   -0.639614
  C      3.342629    0.918322   -0.571050
  C      2.728960   -0.154576   -1.083840
  C      1.237925   -0.366802   -1.085225
  C      0.813989   -1.853728   -0.970010
  C     -0.636244   -1.905304   -1.509719
  C     -1.546834   -0.838647   -0.943262
  C     -2.927566   -0.975343   -1.180514
  C     -3.840778   -0.042323   -0.692604
  C     -3.382787    1.035817    0.051626
  O     -4.164485    2.011907    0.620228
  C     -5.567495    1.913991    0.402456
  C     -2.001001    1.178159    0.280712
  O     -1.606603    2.224818    1.073911
  C     -1.048405    0.279968   -0.233747
  C      0.478252    0.416425    0.024218
  C      0.742892   -0.198180    1.433677
  C      1.497745   -1.526959    1.402791
  N      1.072116   -2.455080    0.359730
  C      0.096846   -3.423091    0.837680
  C      0.982012    1.878196   -0.034827
  C      2.494993    2.028697   -0.017809
  O      3.003705    3.072457    0.394022
  H      6.393425    1.241508    0.507907
  H      5.398567    2.686580    0.334249
  H      4.881594    1.338311    1.420836
  H      3.341337   -0.931889   -1.536306
  H      0.916227    0.001799   -2.072943
  H      1.415122   -2.447463   -1.672240
  H     -1.080124   -2.897210   -1.374480
  H     -0.600136   -1.747642   -2.597409
  H     -3.299327   -1.825840   -1.750032
  H     -4.893453   -0.197732   -0.900031
  H     -5.807382    1.983708   -0.663659
  H     -5.971393    0.995703    0.841266
  H     -6.043036    2.760787    0.906622
  H     -2.430611    2.695368    1.309259
  H      1.322574    0.496654    2.055086
  H     -0.197231   -0.351138    1.980609
  H      2.568244   -1.330921    1.270888
  H      1.443892   -1.991349    2.396439
  H     -0.071235   -4.210115    0.094859
  H      0.469376   -3.938221    1.730868
  H     -0.860582   -2.958761    1.095449
  H      0.615248    2.380428   -0.938842
  H      0.633368    2.446711    0.832848

 Total Charge           Charge          ....    0
 Multiplicity           Mult            ....    1
 Number of Electrons    NEL             ....  176
 Basis Dimension        Dim             ....  451

ORBITAL ENERGIES
----------------

  NO   OCC          E(Eh)            E(eV)
   0   2.0000     -20.597895      -560.4972
   1   2.0000     -20.576676      -559.9198
   2   2.0000     -20.559694      -559.4577
   3   2.0000     -20.533823      -558.7537
   4   2.0000     -15.538571      -422.8260
   5   2.0000     -11.333404      -308.3976
   6   2.0000     -11.308632      -307.7235
   7   2.0000     -11.305215      -307.6305
   8   2.0000     -11.304142      -307.6013
   9   2.0000     -11.290984      -307.2433
  10   2.0000     -11.267668      -306.6088
  11   2.0000     -11.267292      -306.5986
  12   2.0000     -11.261851      -306.4506
  13   2.0000     -11.251648      -306.1729
  14   2.0000     -11.250902      -306.1526
  15   2.0000     -11.249944      -306.1265
  16   2.0000     -11.247665      -306.0645
  17   2.0000     -11.247463      -306.0590
  18   2.0000     -11.247135      -306.0501
  19   2.0000     -11.246905      -306.0439
  20   2.0000     -11.238572      -305.8171
  21   2.0000     -11.237302      -305.7825
  22   2.0000     -11.232536      -305.6528
  23   2.0000     -11.224940      -305.4461
  24   2.0000      -1.416769       -38.5523
  25   2.0000      -1.375609       -37.4322
  26   2.0000      -1.371883       -37.3308
  27   2.0000      -1.345894       -36.6237
  28   2.0000      -1.221543       -33.2399
  29   2.0000      -1.154328       -31.4108
  30   2.0000      -1.121914       -30.5288
  31   2.0000      -1.061483       -28.8844
  32   2.0000      -1.055388       -28.7186
  33   2.0000      -1.008194       -27.4343
  34   2.0000      -0.997718       -27.1493
  35   2.0000      -0.985763       -26.8240
  36   2.0000      -0.965815       -26.2812
  37   2.0000      -0.927681       -25.2435
  38   2.0000      -0.910684       -24.7810
  39   2.0000      -0.900051       -24.4916
  40   2.0000      -0.856538       -23.3076
  41   2.0000      -0.838503       -22.8168
  42   2.0000      -0.823819       -22.4173
  43   2.0000      -0.806611       -21.9490
  44   2.0000      -0.796194       -21.6655
  45   2.0000      -0.742108       -20.1938
  46   2.0000      -0.728000       -19.8099
  47   2.0000      -0.709281       -19.3005
  48   2.0000      -0.694970       -18.9111
  49   2.0000      -0.691802       -18.8249
  50   2.0000      -0.675415       -18.3790
  51   2.0000      -0.669031       -18.2053
  52   2.0000      -0.657772       -17.8989
  53   2.0000      -0.650107       -17.6903
  54   2.0000      -0.646350       -17.5881
  55   2.0000      -0.634136       -17.2557
  56   2.0000      -0.627745       -17.0818
  57   2.0000      -0.622102       -16.9283
  58   2.0000      -0.611962       -16.6523
  59   2.0000      -0.606255       -16.4970
  60   2.0000      -0.602288       -16.3891
  61   2.0000      -0.595244       -16.1974
  62   2.0000      -0.584699       -15.9105
  63   2.0000      -0.575005       -15.6467
  64   2.0000      -0.571890       -15.5619
  65   2.0000      -0.567433       -15.4406
  66   2.0000      -0.559450       -15.2234
  67   2.0000      -0.550870       -14.9899
  68   2.0000      -0.543967       -14.8021
  69   2.0000      -0.540160       -14.6985
  70   2.0000      -0.534404       -14.5419
  71   2.0000      -0.521712       -14.1965
  72   2.0000      -0.520087       -14.1523
  73   2.0000      -0.515805       -14.0358
  74   2.0000      -0.507600       -13.8125
  75   2.0000      -0.501406       -13.6440
  76   2.0000      -0.501239       -13.6394
  77   2.0000      -0.487005       -13.2521
  78   2.0000      -0.476796       -12.9743
  79   2.0000      -0.463398       -12.6097
  80   2.0000      -0.456461       -12.4209
  81   2.0000      -0.452164       -12.3040
  82   2.0000      -0.435913       -11.8618
  83   2.0000      -0.400235       -10.8909
  84   2.0000      -0.339874        -9.2484
  85   2.0000      -0.336208        -9.1487
  86   2.0000      -0.330776        -9.0009
  87   2.0000      -0.302276        -8.2253
  88   0.0000       0.098898         2.6912
  89   0.0000       0.129599         3.5266
  90   0.0000       0.135685         3.6922
  91   0.0000       0.167707         4.5635
  92   0.0000       0.173128         4.7110

MULLIKEN ATOMIC CHARGES
-----------------------
   0 C :    0.249351
   1 O :   -0.568099
   2 C :    0.198865
   3 C :   -0.001232
   4 C :   -0.104931
   5 C :    0.248206
   6 C :    0.113173
   7 C :   -0.158422
   8 C :   -0.040879
   9 C :   -0.112539
  10 C :    0.292937
  11 O :   -0.603057
  12 C :    0.231536
  13 C :    0.206854
  14 O :   -0.396191
  15 C :   -0.020602
  16 C :   -0.455752
  17 C :    0.105982
  18 C :    0.214247
  19 N :   -0.686840
  20 C :    0.180146
  21 C :    0.183853
  22 C :    0.197600
  23 O :   -0.394839
  24 H :    0.027825
  25 H :    0.055986
  26 H :    0.017874
  27 H :    0.055583
  28 H :    0.065005
  29 H :    0.024195
  30 H :    0.041251
  31 H :    0.048311
  32 H :    0.024702
  33 H :    0.032690
  34 H :    0.040330
  35 H :    0.039668
  36 H :    0.053840
  37 H :    0.230070
  38 H :    0.030985
  39 H :    0.047817
  40 H :    0.028032
  41 H :    0.028541
  42 H :    0.027323
  43 H :    0.032516
  44 H :    0.008601
  45 H :    0.063501
  46 H :    0.095989
Sum of atomic charges:   -0.0000000

LOEWDIN ATOMIC CHARGES
----------------------
   0 C :    0.132904
   1 O :   -0.215318
   2 C :    0.018790
   3 C :    0.006572
   4 C :   -0.019965
   5 C :    0.070938
   6 C :   -0.011655
   7 C :   -0.030451
   8 C :   -0.043646
   9 C :   -0.059838
  10 C :    0.042300
  11 O :   -0.212975
  12 C :    0.138850
  13 C :    0.079847
  14 O :   -0.124738
  15 C :   -0.045238
  16 C :   -0.028538
  17 C :   -0.011463
  18 C :    0.060765
  19 N :   -0.205033
  20 C :    0.057338
  21 C :   -0.016979
  22 C :    0.153781
  23 O :   -0.246645
  24 H :    0.009287
  25 H :    0.014482
  26 H :    0.003910
  27 H :    0.036428
  28 H :    0.034079
  29 H :    0.006781
  30 H :    0.021466
  31 H :    0.028210
  32 H :    0.024757
  33 H :    0.028159
  34 H :    0.011643
  35 H :    0.011197
  36 H :    0.022522
  37 H :    0.100405
  38 H :    0.017937
  39 H :    0.021158
  40 H :    0.004838
  41 H :    0.015760
  42 H :    0.009199
  43 H :    0.013501
  44 H :   -0.005985
  45 H :    0.039180
  46 H :    0.041483

  Mayer bond orders larger than 0.100000
B(  0-C ,  1-O ) :   0.8481 B(  0-C , 24-H ) :   0.9908 B(  0-C , 25-H ) :   0.9900
B(  0-C , 26-H ) :   0.9852 B(  1-O ,  2-C ) :   0.9937 B(  2-C ,  3-C ) :   1.8590
B(  2-C , 22-C ) :   0.8991 B(  3-C ,  4-C ) :   0.9890 B(  3-C , 27-H ) :   0.9823
B(  4-C ,  5-C ) :   1.0077 B(  4-C , 16-C ) :   0.9630 B(  4-C , 28-H ) :   0.9401
B(  5-C ,  6-C ) :   1.0421 B(  5-C , 19-N ) :   0.9026 B(  5-C , 29-H ) :   0.9671
B(  6-C ,  7-C ) :   0.9496 B(  6-C , 30-H ) :   0.9678 B(  6-C , 31-H ) :   0.9560
B(  7-C ,  8-C ) :   1.4580 B(  7-C , 15-C ) :   1.4380 B(  8-C ,  9-C ) :   1.3955
B(  8-C , 32-H ) :   1.0049 B(  9-C , 10-C ) :   1.3702 B(  9-C , 33-H ) :   1.0114
B( 10-C , 11-O ) :   0.9389 B( 10-C , 13-C ) :   1.3672 B( 11-O , 12-C ) :   0.8549
B( 12-C , 34-H ) :   0.9859 B( 12-C , 35-H ) :   0.9859 B( 12-C , 36-H ) :   0.9930
B( 13-C , 14-O ) :   1.1092 B( 13-C , 15-C ) :   1.4672 B( 14-O , 37-H ) :   0.9338
B( 15-C , 16-C ) :   0.9139 B( 16-C , 17-C ) :   0.9038 B( 16-C , 21-C ) :   1.0113
B( 17-C , 18-C ) :   1.0546 B( 17-C , 38-H ) :   0.9747 B( 17-C , 39-H ) :   0.9677
B( 18-C , 19-N ) :   0.9375 B( 18-C , 40-H ) :   0.9677 B( 18-C , 41-H ) :   0.9808
B( 19-N , 20-C ) :   0.9437 B( 20-C , 42-H ) :   0.9901 B( 20-C , 43-H ) :   0.9895
B( 20-C , 44-H ) :   0.9773 B( 21-C , 22-C ) :   0.9878 B( 21-C , 45-H ) :   0.9500
B( 21-C , 46-H ) :   0.9567 B( 22-C , 23-O ) :   1.9980

FINAL SINGLE POINT ENERGY     -1085.891940854751

DIPOLE MOMENT
-------------
                                X             Y             Z
Electronic contribution:      1.35909      10.35871      -3.76820
Nuclear contribution   :     -3.70092     -11.37656       3.71909
                        -----------------------------------------
Total Dipole Moment    :     -2.34183      -1.01785      -0.04911
                        -----------------------------------------
Magnitude (a.u.)       :      2.55394
Magnitude (Debye)      :      6.49160

Rotational constants in cm-1:     0.013832     0.005727     0.004570
Rotational constants in MHz :   414.673377   171.695182   136.991809

                             ****ORCA TERMINATED NORMALLY****
TOTAL RUN TIME: 0 days 0 hours 0 minutes 42 seconds 47 msec
